Program Version,EnergyPlus, Version 8.3.0-6d97d074ea, YMD=2017.09.21 05:39
1,5,Environment Title[],Latitude[deg],Longitude[deg],Time Zone[],Elevation[m]
2,6,Day of Simulation[],Month[],Day of Month[],DST Indicator[1=yes 0=no],Hour[],StartMinute[],EndMinute[],DayType
3,3,Cumulative Day of Simulation[],Month[],Day of Month[],DST Indicator[1=yes 0=no],DayType  ! When Daily Report Variables Requested
4,2,Cumulative Days of Simulation[],Month[]  ! When Monthly Report Variables Requested
5,1,Cumulative Days of Simulation[] ! When Run Period Report Variables Requested
686,1,HW SUPPLY OUTLET NODE,System Node Temperature [C] !TimeStep
687,1,HW DEMAND INLET NODE,System Node Temperature [C] !TimeStep
688,1,HW DEMAND INLET NODE,System Node Mass Flow Rate [kg/s] !TimeStep
End of Data Dictionary
1,Chicago Ohare Intl Ap IL USA TMY3 WMO#=725300,  41.98, -87.92,  -6.00, 201.00
2,1, 1, 1, 0, 1, 0.00,15.00,Tuesday
686,40.
687,51.098188904562
688,3.248182939283853E-02
2,1, 1, 1, 0, 1,15.00,30.00,Tuesday
686,40.
687,50.9471596531396
688,4.117825230474662E-02
2,1, 1, 1, 0, 1,30.00,45.00,Tuesday
686,40.
687,50.7600429296787
688,5.150960203412762E-02
2,1, 1, 1, 0, 1,45.00,60.00,Tuesday
686,40.
687,50.5406537135301
688,5.923051719106821E-02
2,1, 1, 1, 0, 2, 0.00,15.00,Tuesday
686,40.
687,50.3024885921786
688,6.361436774662874E-02
2,1, 1, 1, 0, 2,15.00,30.00,Tuesday
686,40.
687,50.068393054417
688,5.989974060689168E-02
2,1, 1, 1, 0, 2,30.00,45.00,Tuesday
686,40.
687,49.8533183190691
688,5.613635566154689E-02
2,1, 1, 1, 0, 2,45.00,60.00,Tuesday
686,40.
687,49.6452394968815
688,5.858360815463164E-02
2,1, 1, 1, 0, 3, 0.00,15.00,Tuesday
686,40.
687,49.4264190635194
688,6.477402048099953E-02
2,1, 1, 1, 0, 3,15.00,30.00,Tuesday
686,40.
687,49.1940016680052
688,6.941853250250561E-02
2,1, 1, 1, 0, 3,30.00,45.00,Tuesday
686,40.
687,48.9560896824966
688,7.149558972759150E-02
2,1, 1, 1, 0, 3,45.00,60.00,Tuesday
686,40.
687,48.7178950309784
688,7.338608315679666E-02
2,1, 1, 1, 0, 4, 0.00,15.00,Tuesday
686,40.
687,48.4780489863423
688,7.656225092762964E-02
2,1, 1, 1, 0, 4,15.00,30.00,Tuesday
686,40.
687,48.2331529468856
688,8.099158729183317E-02
2,1, 1, 1, 0, 4,30.00,45.00,Tuesday
686,40.
687,47.9827452585696
688,8.502814294563521E-02
2,1, 1, 1, 0, 4,45.00,60.00,Tuesday
686,40.
687,47.729971022474
688,8.792248885263657E-02
2,1, 1, 1, 0, 5, 0.00,15.00,Tuesday
686,40.
687,47.477852360449
688,9.030470652315041E-02
2,1, 1, 1, 0, 5,15.00,30.00,Tuesday
686,40.
687,47.2279006172872
688,9.242258537066184E-02
2,1, 1, 1, 0, 5,30.00,45.00,Tuesday
686,40.
687,46.9807133049731
688,9.460767316105881E-02
2,1, 1, 1, 0, 5,45.00,60.00,Tuesday
686,40.
687,46.7363208215361
688,9.693657492302424E-02
2,1, 1, 1, 0, 6, 0.00,15.00,Tuesday
686,40.
687,46.4948591967485
688,9.926081568230952E-02
2,1, 1, 1, 0, 6,15.00,30.00,Tuesday
686,40.
687,46.25641070985
688,0.101782616796616
2,1, 1, 1, 0, 6,30.00,45.00,Tuesday
686,40.
687,46.02104791137
688,0.104318749379415
2,1, 1, 1, 0, 6,45.00,60.00,Tuesday
686,40.
687,45.7892819748403
688,0.106660155877637
2,1, 1, 1, 0, 7, 0.00,15.00,Tuesday
686,40.
687,45.5622744120565
688,0.10833543103799
2,1, 1, 1, 0, 7,15.00,30.00,Tuesday
686,40.
687,45.3452282491022
688,0.10556465847668
2,1, 1, 1, 0, 7,30.00,45.00,Tuesday
686,40.
687,45.1393338037254
688,0.105547920801001
2,1, 1, 1, 0, 7,45.00,60.00,Tuesday
686,40.
687,44.9381375475395
688,0.109105649537163
2,1, 1, 1, 0, 8, 0.00,15.00,Tuesday
686,40.
687,44.2514764410868
688,0.697079252476937
2,1, 1, 1, 0, 8,15.00,30.00,Tuesday
686,40.
687,43.3133093149967
688,0.646427487608365
2,1, 1, 1, 0, 8,30.00,45.00,Tuesday
686,40.
687,42.6219633615538
688,0.61438854546213
2,1, 1, 1, 0, 8,45.00,60.00,Tuesday
686,40.
687,42.1103697417494
688,0.553039232693055
2,1, 1, 1, 0, 9, 0.00,15.00,Tuesday
686,60.
687,43.1402593950862
688,0.337943431198932
2,1, 1, 1, 0, 9,15.00,30.00,Tuesday
686,60.
687,44.7923028089772
688,0.25717379629679
2,1, 1, 1, 0, 9,30.00,45.00,Tuesday
686,60.
687,46.0911431512536
688,0.224914490396043
2,1, 1, 1, 0, 9,45.00,60.00,Tuesday
686,60.
687,47.1141308233679
688,0.18374001608472
2,1, 1, 1, 0,10, 0.00,15.00,Tuesday
686,60.
687,47.8915135673263
688,0.152792539181666
2,1, 1, 1, 0,10,15.00,30.00,Tuesday
686,60.
687,48.49222974644
688,0.121069564784046
2,1, 1, 1, 0,10,30.00,45.00,Tuesday
686,60.
687,48.9572507618106
688,0.101135695290767
2,1, 1, 1, 0,10,45.00,60.00,Tuesday
686,60.
687,49.3371810804993
688,8.660340569068303E-02
2,1, 1, 1, 0,11, 0.00,15.00,Tuesday
686,60.
687,49.6487601705669
688,7.273331437625147E-02
2,1, 1, 1, 0,11,15.00,30.00,Tuesday
686,60.
687,49.9032860158528
688,6.102277799853757E-02
2,1, 1, 1, 0,11,30.00,45.00,Tuesday
686,60.
687,50.1116112427958
688,5.095694951011237E-02
2,1, 1, 1, 0,11,45.00,60.00,Tuesday
686,60.
687,50.2815131631105
688,4.214388235408086E-02
2,1, 1, 1, 0,12, 0.00,15.00,Tuesday
686,60.
687,50.4191879468051
688,3.449798798428409E-02
2,1, 1, 1, 0,12,15.00,30.00,Tuesday
686,60.
687,50.5297965860958
688,2.787485664222771E-02
2,1, 1, 1, 0,12,30.00,45.00,Tuesday
686,60.
687,50.6175861304523
688,2.214762054925296E-02
2,1, 1, 1, 0,12,45.00,60.00,Tuesday
686,60.
687,50.6855916262316
688,1.681431702106840E-02
2,1, 1, 1, 0,13, 0.00,15.00,Tuesday
686,55.
687,50.7256625018108
688,1.376976761376112E-02
2,1, 1, 1, 0,13,15.00,30.00,Tuesday
686,55.
687,50.7477760796469
688,1.410779370944076E-02
2,1, 1, 1, 0,13,30.00,45.00,Tuesday
686,55.
687,50.7697801813727
688,1.377545152707070E-02
2,1, 1, 1, 0,13,45.00,60.00,Tuesday
686,55.
687,50.7897494866986
688,1.165374920482279E-02
2,1, 1, 1, 0,14, 0.00,15.00,Tuesday
686,55.
687,50.8061995095291
688,9.384615763537515E-03
2,1, 1, 1, 0,14,15.00,30.00,Tuesday
686,55.
687,50.8174542627687
688,5.056059111822460E-03
2,1, 1, 1, 0,14,30.00,45.00,Tuesday
686,55.
687,50.8235463988793
688,2.777314831190102E-03
2,1, 1, 1, 0,14,45.00,60.00,Tuesday
686,55.
687,50.8276061027732
688,2.449385630623137E-03
2,1, 1, 1, 0,15, 0.00,15.00,Tuesday
686,55.
687,50.8312490992011
688,2.245170393441196E-03
2,1, 1, 1, 0,15,15.00,30.00,Tuesday
686,55.
687,50.8342308382415
688,1.600256260595595E-03
2,1, 1, 1, 0,15,30.00,45.00,Tuesday
686,55.
687,50.8360548959793
688,7.534986784561895E-04
2,1, 1, 1, 0,15,45.00,60.00,Tuesday
686,30.1191399511251
687,50.8366386542221
688,0.0
2,1, 1, 1, 0,16, 0.00,15.00,Tuesday
686,30.1191399511251
687,50.8366386542221
688,0.0
2,1, 1, 1, 0,16,15.00,30.00,Tuesday
686,30.1191399511251
687,50.8366386542221
688,0.0
2,1, 1, 1, 0,16,30.00,45.00,Tuesday
686,30.1191399511251
687,50.8366386542221
688,0.0
2,1, 1, 1, 0,16,45.00,60.00,Tuesday
686,30.1191399511251
687,50.8366386542221
688,0.0
2,1, 1, 1, 0,17, 0.00,15.00,Tuesday
686,30.1191399511251
687,50.8366386542221
688,0.0
2,1, 1, 1, 0,17,15.00,30.00,Tuesday
686,30.1191399511251
687,50.8366386542221
688,0.0
2,1, 1, 1, 0,17,30.00,45.00,Tuesday
686,55.
687,50.8371000768843
688,5.956910467123863E-04
2,1, 1, 1, 0,17,45.00,60.00,Tuesday
686,55.
687,50.8381620418467
688,7.755260161712310E-04
2,1, 1, 1, 0,18, 0.00,15.00,Tuesday
686,30.1133075057264
687,50.8387625604695
688,0.0
2,1, 1, 1, 0,18,15.00,30.00,Tuesday
686,30.1133075057264
687,50.8387625604695
688,0.0
2,1, 1, 1, 0,18,30.00,45.00,Tuesday
686,30.1133075057264
687,50.8387625604695
688,0.0
2,1, 1, 1, 0,18,45.00,60.00,Tuesday
686,30.1133075057264
687,50.8387625604695
688,0.0
2,1, 1, 1, 0,19, 0.00,15.00,Tuesday
686,30.1133075057264
687,50.8387625604695
688,0.0
2,1, 1, 1, 0,19,15.00,30.00,Tuesday
686,30.1133075057264
687,50.8387625604696
688,0.0
2,1, 1, 1, 0,19,30.00,45.00,Tuesday
686,30.1133075057264
687,50.8387625604695
688,0.0
2,1, 1, 1, 0,19,45.00,60.00,Tuesday
686,30.1133075057264
687,50.8387625604695
688,0.0
2,1, 1, 1, 0,20, 0.00,15.00,Tuesday
686,30.1133075057264
687,50.8387625604695
688,0.0
2,1, 1, 1, 0,20,15.00,30.00,Tuesday
686,30.1133075057264
687,50.8387625604695
688,0.0
2,1, 1, 1, 0,20,30.00,45.00,Tuesday
686,30.1133075057264
687,50.8387625604695
688,0.0
2,1, 1, 1, 0,20,45.00,60.00,Tuesday
686,30.1133075057264
687,50.8387625604695
688,0.0
2,1, 1, 1, 0,21, 0.00,15.00,Tuesday
686,30.1133075057264
687,50.8387625604695
688,0.0
2,1, 1, 1, 0,21,15.00,30.00,Tuesday
686,30.1133075057264
687,50.8387625604695
688,0.0
2,1, 1, 1, 0,21,30.00,45.00,Tuesday
686,55.
687,50.8427310230208
688,5.128734364508536E-03
2,1, 1, 1, 0,21,45.00,60.00,Tuesday
686,55.
687,50.8544599144573
688,1.005794275463108E-02
2,1, 1, 1, 0,22, 0.00,15.00,Tuesday
686,55.
687,50.8720600244464
688,1.281010253469539E-02
2,1, 1, 1, 0,22,15.00,30.00,Tuesday
686,55.
687,50.8925102692607
688,1.388255086502898E-02
2,1, 1, 1, 0,22,30.00,45.00,Tuesday
686,55.
687,50.9139146384927
688,1.419753230760942E-02
2,1, 1, 1, 0,22,45.00,60.00,Tuesday
686,55.
687,50.935780237103
688,1.464003818650928E-02
2,1, 1, 1, 0,23, 0.00,15.00,Tuesday
686,55.
687,50.9583853492473
688,1.533664720358189E-02
2,1, 1, 1, 0,23,15.00,30.00,Tuesday
686,55.
687,50.9819910151636
688,1.614647587523015E-02
2,1, 1, 1, 0,23,30.00,45.00,Tuesday
686,55.
687,51.0065764466998
688,1.684050207076815E-02
2,1, 1, 1, 0,23,45.00,60.00,Tuesday
686,55.
687,51.0319163623512
688,1.737182849188736E-02
2,1, 1, 1, 0,24, 0.00,15.00,Tuesday
686,55.
687,51.0578265890785
688,1.783708310758974E-02
2,1, 1, 1, 0,24,15.00,30.00,Tuesday
686,55.
687,51.0842095824707
688,1.825279689152046E-02
2,1, 1, 1, 0,24,30.00,45.00,Tuesday
686,55.
687,51.1120752179973
688,2.013196581035934E-02
2,1, 1, 1, 0,24,45.00,60.00,Tuesday
686,55.
687,51.1460420624245
688,2.703832878477347E-02
2,2, 1, 2, 0, 1, 0.00,15.00,Wednesday
686,40.
687,51.0981902939516
688,3.248103045586950E-02
2,2, 1, 2, 0, 1,15.00,30.00,Wednesday
686,40.
687,50.9584575789349
688,3.562269587811551E-02
2,2, 1, 2, 0, 1,30.00,45.00,Wednesday
686,40.
687,50.809622513661
688,3.787715042112610E-02
2,2, 1, 2, 0, 1,45.00,60.00,Wednesday
686,40.
687,50.652449782779
688,4.084872452933574E-02
2,2, 1, 2, 0, 2, 0.00,15.00,Wednesday
686,40.
687,50.484241816522
688,4.470419002317048E-02
2,2, 1, 2, 0, 2,15.00,30.00,Wednesday
686,40.
687,50.3078619651728
688,4.648620990412325E-02
2,2, 1, 2, 0, 2,30.00,45.00,Wednesday
686,40.
687,50.1307257499979
688,4.667477156512805E-02
2,2, 1, 2, 0, 2,45.00,60.00,Wednesday
686,40.
687,49.9548028522409
688,4.747627865710233E-02
2,2, 1, 2, 0, 3, 0.00,15.00,Wednesday
686,40.
687,49.7766510571068
688,4.958264034070592E-02
2,2, 1, 2, 0, 3,15.00,30.00,Wednesday
686,40.
687,49.5923924718604
688,5.268508764761905E-02
2,2, 1, 2, 0, 3,30.00,45.00,Wednesday
686,40.
687,49.4015084710609
688,5.535130015747718E-02
2,2, 1, 2, 0, 3,45.00,60.00,Wednesday
686,40.
687,49.2069835471603
688,5.702288895118494E-02
2,2, 1, 2, 0, 4, 0.00,15.00,Wednesday
686,40.
687,49.0115032343684
688,5.831952007730196E-02
2,2, 1, 2, 0, 4,15.00,30.00,Wednesday
686,40.
687,48.8166156807771
688,5.918965147406677E-02
2,2, 1, 2, 0, 4,30.00,45.00,Wednesday
686,40.
687,48.6231621499042
688,6.005236439968226E-02
2,2, 1, 2, 0, 4,45.00,60.00,Wednesday
686,40.
687,48.4308219468157
688,6.118655896380212E-02
2,2, 1, 2, 0, 5, 0.00,15.00,Wednesday
686,40.
687,48.2391023279555
688,6.244609915794155E-02
2,2, 1, 2, 0, 5,15.00,30.00,Wednesday
686,40.
687,48.0486370493522
688,6.325813374536510E-02
2,2, 1, 2, 0, 5,30.00,45.00,Wednesday
686,40.
687,47.8607159822638
688,6.371547808244964E-02
2,2, 1, 2, 0, 5,45.00,60.00,Wednesday
686,40.
687,47.6759265119108
688,6.413736029165090E-02
2,2, 1, 2, 0, 6, 0.00,15.00,Wednesday
686,40.
687,47.4942688942875
688,6.458482053142614E-02
2,2, 1, 2, 0, 6,15.00,30.00,Wednesday
686,40.
687,47.3147688675098
688,6.571334761000361E-02
2,2, 1, 2, 0, 6,30.00,45.00,Wednesday
686,40.
687,47.1364137493322
688,6.696046207442195E-02
2,2, 1, 2, 0, 6,45.00,60.00,Wednesday
686,40.
687,46.95984060246
688,6.769304711306587E-02
2,2, 1, 2, 0, 7, 0.00,15.00,Wednesday
686,40.
687,46.7869012545659
688,6.753881850889600E-02
2,2, 1, 2, 0, 7,15.00,30.00,Wednesday
686,40.
687,46.6247287603592
688,6.242188574584699E-02
2,2, 1, 2, 0, 7,30.00,45.00,Wednesday
686,40.
687,46.4755203960607
688,6.000138013913978E-02
2,2, 1, 2, 0, 7,45.00,60.00,Wednesday
686,40.
687,46.3305913280692
688,6.165733395450206E-02
2,2, 1, 2, 0, 8, 0.00,15.00,Wednesday
686,40.
687,45.5667896065863
688,0.625137629051406
2,2, 1, 2, 0, 8,15.00,30.00,Wednesday
686,40.
687,44.4757211434296
688,0.548893424317447
2,2, 1, 2, 0, 8,30.00,45.00,Wednesday
686,40.
687,43.6869182378185
688,0.494808730946392
2,2, 1, 2, 0, 8,45.00,60.00,Wednesday
686,40.
687,43.1137574868358
688,0.417800293131545
2,2, 1, 2, 0, 9, 0.00,15.00,Wednesday
686,60.
687,43.6810588868327
688,0.222621989033456
2,2, 1, 2, 0, 9,15.00,30.00,Wednesday
686,60.
687,44.6960332776422
688,0.154795431463904
2,2, 1, 2, 0, 9,30.00,45.00,Wednesday
686,60.
687,45.4727105579175
688,0.127494099947051
2,2, 1, 2, 0, 9,45.00,60.00,Wednesday
686,60.
687,46.0504145092204
688,9.128469358786934E-02
2,2, 1, 2, 0,10, 0.00,15.00,Wednesday
686,60.
687,46.464577100815
688,7.077799534736959E-02
2,2, 1, 2, 0,10,15.00,30.00,Wednesday
686,60.
687,46.7897962351767
688,5.988789777413353E-02
2,2, 1, 2, 0,10,30.00,45.00,Wednesday
686,60.
687,47.0644393338153
688,5.300191573803405E-02
2,2, 1, 2, 0,10,45.00,60.00,Wednesday
686,60.
687,47.3004132115568
688,4.592380527134764E-02
2,2, 1, 2, 0,11, 0.00,15.00,Wednesday
686,60.
687,47.498523437344
688,3.855775848065410E-02
2,2, 1, 2, 0,11,15.00,30.00,Wednesday
686,60.
687,47.6620780285618
688,3.220529410624230E-02
2,2, 1, 2, 0,11,30.00,45.00,Wednesday
686,60.
687,47.7974504934135
688,2.708000049527212E-02
2,2, 1, 2, 0,11,45.00,60.00,Wednesday
686,60.
687,47.9099298177865
688,2.268298195133768E-02
2,2, 1, 2, 0,12, 0.00,15.00,Wednesday
686,60.
687,48.002590100194
688,1.866119928440612E-02
2,2, 1, 2, 0,12,15.00,30.00,Wednesday
686,60.
687,48.0776634890725
688,1.507115804045026E-02
2,2, 1, 2, 0,12,30.00,45.00,Wednesday
686,60.
687,48.137163462439
688,1.181518137427175E-02
2,2, 1, 2, 0,12,45.00,60.00,Wednesday
686,60.
687,48.1824348880361
688,8.732285139393586E-03
2,2, 1, 2, 0,13, 0.00,15.00,Wednesday
686,55.
687,48.210124593227
688,6.724642120818172E-03
2,2, 1, 2, 0,13,15.00,30.00,Wednesday
686,55.
687,48.2261858282042
688,6.003228299138752E-03
2,2, 1, 2, 0,13,30.00,45.00,Wednesday
686,55.
687,48.2396919773466
688,4.723036517774196E-03
2,2, 1, 2, 0,13,45.00,60.00,Wednesday
686,55.
687,48.2501735926217
688,3.616038620821594E-03
2,2, 1, 2, 0,14, 0.00,15.00,Wednesday
686,55.
687,48.2577563589685
688,2.424800269292270E-03
2,2, 1, 2, 0,14,15.00,30.00,Wednesday
686,55.
687,48.2622705870657
688,1.174696762777379E-03
2,2, 1, 2, 0,14,30.00,45.00,Wednesday
686,55.
687,48.2639587276062
688,1.720009149492172E-04
2,2, 1, 2, 0,14,45.00,60.00,Wednesday
686,28.7873659615499
687,48.2641743017674
688,0.0
2,2, 1, 2, 0,15, 0.00,15.00,Wednesday
686,28.7873659615499
687,48.2641743017674
688,0.0
2,2, 1, 2, 0,15,15.00,30.00,Wednesday
686,28.7873659615499
687,48.2641743017674
688,0.0
2,2, 1, 2, 0,15,30.00,45.00,Wednesday
686,28.7873659615499
687,48.2641743017674
688,0.0
2,2, 1, 2, 0,15,45.00,60.00,Wednesday
686,28.7873659615499
687,48.2641743017674
688,0.0
2,2, 1, 2, 0,16, 0.00,15.00,Wednesday
686,28.7873659615499
687,48.2641743017674
688,0.0
2,2, 1, 2, 0,16,15.00,30.00,Wednesday
686,28.7873659615499
687,48.2641743017674
688,0.0
2,2, 1, 2, 0,16,30.00,45.00,Wednesday
686,28.7873659615499
687,48.2641743017674
688,0.0
2,2, 1, 2, 0,16,45.00,60.00,Wednesday
686,28.7873659615499
687,48.2641743017674
688,0.0
2,2, 1, 2, 0,17, 0.00,15.00,Wednesday
686,28.7873659615499
687,48.2641743017674
688,0.0
2,2, 1, 2, 0,17,15.00,30.00,Wednesday
686,28.7873659615499
687,48.2641743017674
688,0.0
2,2, 1, 2, 0,17,30.00,45.00,Wednesday
686,28.7873659615499
687,48.2641743017674
688,0.0
2,2, 1, 2, 0,17,45.00,60.00,Wednesday
686,28.7873659615499
687,48.2641743017674
688,0.0
2,2, 1, 2, 0,18, 0.00,15.00,Wednesday
686,28.7873659615499
687,48.2641743017674
688,0.0
2,2, 1, 2, 0,18,15.00,30.00,Wednesday
686,28.7873659615499
687,48.2641743017674
688,0.0
2,2, 1, 2, 0,18,30.00,45.00,Wednesday
686,28.7873659615499
687,48.2641743017674
688,0.0
2,2, 1, 2, 0,18,45.00,60.00,Wednesday
686,28.7873659615499
687,48.2641743017674
688,0.0
2,2, 1, 2, 0,19, 0.00,15.00,Wednesday
686,28.7873659615499
687,48.2641743017674
688,0.0
2,2, 1, 2, 0,19,15.00,30.00,Wednesday
686,28.7873659615499
687,48.2641743017674
688,0.0
2,2, 1, 2, 0,19,30.00,45.00,Wednesday
686,28.7873659615499
687,48.2641743017674
688,0.0
2,2, 1, 2, 0,19,45.00,60.00,Wednesday
686,28.7873659615499
687,48.2641743017674
688,0.0
2,2, 1, 2, 0,20, 0.00,15.00,Wednesday
686,28.7873659615499
687,48.2641743017674
688,0.0
2,2, 1, 2, 0,20,15.00,30.00,Wednesday
686,28.7873659615499
687,48.2641743017674
688,0.0
2,2, 1, 2, 0,20,30.00,45.00,Wednesday
686,28.7873659615499
687,48.2641743017674
688,0.0
2,2, 1, 2, 0,20,45.00,60.00,Wednesday
686,28.7873659615499
687,48.2641743017674
688,0.0
2,2, 1, 2, 0,21, 0.00,15.00,Wednesday
686,28.7873659615499
687,48.2641743017674
688,0.0
2,2, 1, 2, 0,21,15.00,30.00,Wednesday
686,28.7873659615499
687,48.2641743017674
688,0.0
2,2, 1, 2, 0,21,30.00,45.00,Wednesday
686,28.7873659615499
687,48.2641743017674
688,0.0
2,2, 1, 2, 0,21,45.00,60.00,Wednesday
686,28.7873659615499
687,48.2641743017674
688,0.0
2,2, 1, 2, 0,22, 0.00,15.00,Wednesday
686,28.7873659615499
687,48.2641743017674
688,0.0
2,2, 1, 2, 0,22,15.00,30.00,Wednesday
686,28.7873659615499
687,48.2641743017674
688,0.0
2,2, 1, 2, 0,22,30.00,45.00,Wednesday
686,28.7873659615499
687,48.2641743017674
688,0.0
2,2, 1, 2, 0,22,45.00,60.00,Wednesday
686,55.
687,48.2657706350152
688,1.273900509231378E-03
2,2, 1, 2, 0,23, 0.00,15.00,Wednesday
686,55.
687,48.2747487961955
688,5.897196485581689E-03
2,2, 1, 2, 0,23,15.00,30.00,Wednesday
686,55.
687,48.2938111116516
688,9.359628435681642E-03
2,2, 1, 2, 0,23,30.00,45.00,Wednesday
686,55.
687,48.3199073497213
688,1.159658403785553E-02
2,2, 1, 2, 0,23,45.00,60.00,Wednesday
686,55.
687,48.3552268041281
688,1.689966838199138E-02
2,2, 1, 2, 0,24, 0.00,15.00,Wednesday
686,55.
687,48.4038119948959
688,2.254847757480394E-02
2,2, 1, 2, 0,24,15.00,30.00,Wednesday
686,55.
687,48.4607492380193
688,2.404647886121233E-02
2,2, 1, 2, 0,24,30.00,45.00,Wednesday
686,55.
687,48.517839280556
688,2.307904828679397E-02
2,2, 1, 2, 0,24,45.00,60.00,Wednesday
686,55.
687,48.572718928464
688,2.261550016132537E-02
2,3, 1, 3, 0, 1, 0.00,15.00,Thursday
686,40.
687,48.5614510415652
688,2.399188622018122E-02
2,3, 1, 3, 0, 1,15.00,30.00,Thursday
686,40.
687,48.4803350291867
688,2.717651171315507E-02
2,3, 1, 3, 0, 1,30.00,45.00,Thursday
686,40.
687,48.3910753624201
688,2.969647385924737E-02
2,3, 1, 3, 0, 1,45.00,60.00,Thursday
686,40.
687,48.2963488527693
688,3.132363422717200E-02
2,3, 1, 3, 0, 2, 0.00,15.00,Thursday
686,40.
687,48.1976297557762
688,3.301441203796311E-02
2,3, 1, 3, 0, 2,15.00,30.00,Thursday
686,40.
687,48.0940810438105
688,3.531047861343781E-02
2,3, 1, 3, 0, 2,30.00,45.00,Thursday
686,40.
687,47.9849586091178
688,3.764471442102550E-02
2,3, 1, 3, 0, 2,45.00,60.00,Thursday
686,40.
687,47.871316690075
688,3.939818126722558E-02
2,3, 1, 3, 0, 3, 0.00,15.00,Thursday
686,40.
687,47.7549652857884
688,4.064141816971505E-02
2,3, 1, 3, 0, 3,15.00,30.00,Thursday
686,40.
687,47.6373669283008
688,4.148460588156407E-02
2,3, 1, 3, 0, 3,30.00,45.00,Thursday
686,40.
687,47.5191827606198
688,4.233456620141628E-02
2,3, 1, 3, 0, 3,45.00,60.00,Thursday
686,40.
687,47.4002347872446
688,4.336773019218566E-02
2,3, 1, 3, 0, 4, 0.00,15.00,Thursday
686,40.
687,47.2803273451478
688,4.443168118122497E-02
2,3, 1, 3, 0, 4,15.00,30.00,Thursday
686,40.
687,47.1589569876198
688,4.592524966175849E-02
2,3, 1, 3, 0, 4,30.00,45.00,Thursday
686,40.
687,47.0355696906331
688,4.751760205578931E-02
2,3, 1, 3, 0, 4,45.00,60.00,Thursday
686,40.
687,46.9106002885135
688,4.880803857866282E-02
2,3, 1, 3, 0, 5, 0.00,15.00,Thursday
686,40.
687,46.7849452012678
688,4.981779598307481E-02
2,3, 1, 3, 0, 5,15.00,30.00,Thursday
686,40.
687,46.6586486941974
688,5.117051631079284E-02
2,3, 1, 3, 0, 5,30.00,45.00,Thursday
686,40.
687,46.531087478542
688,5.279327313893518E-02
2,3, 1, 3, 0, 5,45.00,60.00,Thursday
686,40.
687,46.4022340267884
688,5.430559603919256E-02
2,3, 1, 3, 0, 6, 0.00,15.00,Thursday
686,40.
687,46.2726406332864
688,5.560409205451169E-02
2,3, 1, 3, 0, 6,15.00,30.00,Thursday
686,40.
687,46.1426344631499
688,5.696157221400891E-02
2,3, 1, 3, 0, 6,30.00,45.00,Thursday
686,40.
687,46.0120900476518
688,5.849394202830067E-02
2,3, 1, 3, 0, 6,45.00,60.00,Thursday
686,40.
687,45.8808733323452
688,6.011096180431372E-02
2,3, 1, 3, 0, 7, 0.00,15.00,Thursday
686,40.
687,45.7495392235565
688,6.127843667818932E-02
2,3, 1, 3, 0, 7,15.00,30.00,Thursday
686,40.
687,45.6236521001955
688,5.769021595884628E-02
2,3, 1, 3, 0, 7,30.00,45.00,Thursday
686,40.
687,45.5051680274932
688,5.675002475931243E-02
2,3, 1, 3, 0, 7,45.00,60.00,Thursday
686,40.
687,45.3869448824965
688,5.993482933836249E-02
2,3, 1, 3, 0, 8, 0.00,15.00,Thursday
686,40.
687,44.7416279966047
688,0.621650016287885
2,3, 1, 3, 0, 8,15.00,30.00,Thursday
686,40.
687,43.8155362901018
688,0.547812298463913
2,3, 1, 3, 0, 8,30.00,45.00,Thursday
686,40.
687,43.1440510583945
688,0.494184486618634
2,3, 1, 3, 0, 8,45.00,60.00,Thursday
686,40.
687,42.6558289220067
688,0.417284292405216
2,3, 1, 3, 0, 9, 0.00,15.00,Thursday
686,60.
687,43.2732777534789
688,0.220044200108582
2,3, 1, 3, 0, 9,15.00,30.00,Thursday
686,60.
687,44.2940418909806
688,0.151940961170552
2,3, 1, 3, 0, 9,30.00,45.00,Thursday
686,60.
687,45.0797724135192
688,0.126226323099824
2,3, 1, 3, 0, 9,45.00,60.00,Thursday
686,60.
687,45.6722617343668
688,9.211943794399356E-02
2,3, 1, 3, 0,10, 0.00,15.00,Thursday
686,60.
687,46.1042462148543
688,7.252074454738103E-02
2,3, 1, 3, 0,10,15.00,30.00,Thursday
686,60.
687,46.4494530175844
688,6.263967731314907E-02
2,3, 1, 3, 0,10,30.00,45.00,Thursday
686,60.
687,46.7471823042134
688,5.674121937589709E-02
2,3, 1, 3, 0,10,45.00,60.00,Thursday
686,60.
687,47.0093291793281
688,5.061302124371175E-02
2,3, 1, 3, 0,11, 0.00,15.00,Thursday
686,60.
687,47.2363270402292
688,4.411078147181452E-02
2,3, 1, 3, 0,11,15.00,30.00,Thursday
686,60.
687,47.4310684693518
688,3.850742653614814E-02
2,3, 1, 3, 0,11,30.00,45.00,Thursday
686,60.
687,47.5995720952461
688,3.402165818545759E-02
2,3, 1, 3, 0,11,45.00,60.00,Thursday
686,60.
687,47.7467993660162
688,3.016204377301507E-02
2,3, 1, 3, 0,12, 0.00,15.00,Thursday
686,60.
687,47.8755519797097
688,2.660346296155479E-02
2,3, 1, 3, 0,12,15.00,30.00,Thursday
686,60.
687,47.9876189176289
688,2.329878043451819E-02
2,3, 1, 3, 0,12,30.00,45.00,Thursday
686,60.
687,48.084647420015
688,2.028488155875854E-02
2,3, 1, 3, 0,12,45.00,60.00,Thursday
686,60.
687,48.16824446797
688,1.755147927772199E-02
2,3, 1, 3, 0,13, 0.00,15.00,Thursday
686,55.
687,48.2261213468771
688,1.528217821894855E-02
2,3, 1, 3, 0,13,15.00,30.00,Thursday
686,55.
687,48.2657781822447
688,1.627531950338710E-02
2,3, 1, 3, 0,13,30.00,45.00,Thursday
686,55.
687,48.3058009238947
688,1.576083735185328E-02
2,3, 1, 3, 0,13,45.00,60.00,Thursday
686,55.
687,48.3417629644966
688,1.318688297784443E-02
2,3, 1, 3, 0,14, 0.00,15.00,Thursday
686,55.
687,48.3705893913118
688,1.012977939166996E-02
2,3, 1, 3, 0,14,15.00,30.00,Thursday
686,55.
687,48.3892257912826
688,4.997586511429955E-03
2,3, 1, 3, 0,14,30.00,45.00,Thursday
686,55.
687,48.4004644878488
688,4.146824898065394E-03
2,3, 1, 3, 0,14,45.00,60.00,Thursday
686,55.
687,48.4098830898881
688,3.528716340949911E-03
2,3, 1, 3, 0,15, 0.00,15.00,Thursday
686,55.
687,48.4179300033776
688,3.037709639316913E-03
2,3, 1, 3, 0,15,15.00,30.00,Thursday
686,55.
687,48.424859802429
688,2.623581050286212E-03
2,3, 1, 3, 0,15,30.00,45.00,Thursday
686,55.
687,48.4308786378498
688,2.298356394806993E-03
2,3, 1, 3, 0,15,45.00,60.00,Thursday
686,55.
687,48.4361807080439
688,2.041188796205458E-03
2,3, 1, 3, 0,16, 0.00,15.00,Thursday
686,55.
687,48.4409150449179
688,1.836657804803934E-03
2,3, 1, 3, 0,16,15.00,30.00,Thursday
686,55.
687,48.4452207809586
688,1.692564051050512E-03
2,3, 1, 3, 0,16,30.00,45.00,Thursday
686,55.
687,48.4492385985303
688,1.602760856435938E-03
2,3, 1, 3, 0,16,45.00,60.00,Thursday
686,55.
687,48.4530980409512
688,1.564577094006231E-03
2,3, 1, 3, 0,17, 0.00,15.00,Thursday
686,55.
687,48.4570465780141
688,1.677826505349439E-03
2,3, 1, 3, 0,17,15.00,30.00,Thursday
686,55.
687,48.4615214632737
688,1.999186165261938E-03
2,3, 1, 3, 0,17,30.00,45.00,Thursday
686,55.
687,48.4667702950262
688,2.316986137143242E-03
2,3, 1, 3, 0,17,45.00,60.00,Thursday
686,55.
687,48.4727184523695
688,2.578434175873555E-03
2,3, 1, 3, 0,18, 0.00,15.00,Thursday
686,28.0736883861147
687,48.4758494646351
688,0.0
2,3, 1, 3, 0,18,15.00,30.00,Thursday
686,28.0736883861147
687,48.4758494646351
688,0.0
2,3, 1, 3, 0,18,30.00,45.00,Thursday
686,28.0736883861147
687,48.4758494646351
688,0.0
2,3, 1, 3, 0,18,45.00,60.00,Thursday
686,28.0736883861147
687,48.4758494646351
688,0.0
2,3, 1, 3, 0,19, 0.00,15.00,Thursday
686,28.0736883861147
687,48.4758494646351
688,0.0
2,3, 1, 3, 0,19,15.00,30.00,Thursday
686,28.0736883861147
687,48.4758494646351
688,0.0
2,3, 1, 3, 0,19,30.00,45.00,Thursday
686,28.0736883861147
687,48.4758494646351
688,0.0
2,3, 1, 3, 0,19,45.00,60.00,Thursday
686,28.0736883861147
687,48.4758494646351
688,0.0
2,3, 1, 3, 0,20, 0.00,15.00,Thursday
686,28.0736883861147
687,48.4758494646351
688,0.0
2,3, 1, 3, 0,20,15.00,30.00,Thursday
686,28.0736883861147
687,48.4758494646351
688,0.0
2,3, 1, 3, 0,20,30.00,45.00,Thursday
686,28.0736883861147
687,48.4758494646351
688,0.0
2,3, 1, 3, 0,20,45.00,60.00,Thursday
686,28.0736883861147
687,48.4758494646351
688,0.0
2,3, 1, 3, 0,21, 0.00,15.00,Thursday
686,28.0736883861147
687,48.4758494646351
688,0.0
2,3, 1, 3, 0,21,15.00,30.00,Thursday
686,55.
687,48.4774698590485
688,1.335066354361164E-03
2,3, 1, 3, 0,21,30.00,45.00,Thursday
686,55.
687,48.4889908471962
688,8.168435898408682E-03
2,3, 1, 3, 0,21,45.00,60.00,Thursday
686,55.
687,48.5143245761692
688,1.278684369083526E-02
2,3, 1, 3, 0,22, 0.00,15.00,Thursday
686,55.
687,48.5495167390698
688,1.645840448772252E-02
2,3, 1, 3, 0,22,15.00,30.00,Thursday
686,55.
687,48.5986613386962
688,2.465541199260083E-02
2,3, 1, 3, 0,22,30.00,45.00,Thursday
686,55.
687,48.662835260586
688,2.950392209976755E-02
2,3, 1, 3, 0,22,45.00,60.00,Thursday
686,55.
687,48.7330474085608
688,3.037586143022891E-02
2,3, 1, 3, 0,23, 0.00,15.00,Thursday
686,55.
687,48.802621662581
688,2.962232367636472E-02
2,3, 1, 3, 0,23,15.00,30.00,Thursday
686,55.
687,48.8707072725894
688,2.974942195028292E-02
2,3, 1, 3, 0,23,30.00,45.00,Thursday
686,55.
687,48.9402025272904
688,3.153877278394287E-02
2,3, 1, 3, 0,23,45.00,60.00,Thursday
686,55.
687,49.0158272946173
688,3.596434911389914E-02
2,3, 1, 3, 0,24, 0.00,15.00,Thursday
686,55.
687,49.0992014286796
688,3.944955574316709E-02
2,3, 1, 3, 0,24,15.00,30.00,Thursday
686,55.
687,49.1873344225908
688,4.143251048879031E-02
2,3, 1, 3, 0,24,30.00,45.00,Thursday
686,55.
687,49.27799387188
688,4.305700591297430E-02
2,3, 1, 3, 0,24,45.00,60.00,Thursday
686,55.
687,49.3710726744148
688,4.509263034903022E-02
2,4, 1, 4, 0, 1, 0.00,15.00,Friday
686,40.
687,49.3358307134474
688,4.726158423607275E-02
2,4, 1, 4, 0, 1,15.00,30.00,Friday
686,40.
687,49.1696642582572
688,4.926467232400849E-02
2,4, 1, 4, 0, 1,30.00,45.00,Friday
686,40.
687,49.0002083506359
688,5.099004687156412E-02
2,4, 1, 4, 0, 1,45.00,60.00,Friday
686,40.
687,48.8284950876916
688,5.254385938075469E-02
2,4, 1, 4, 0, 2, 0.00,15.00,Friday
686,40.
687,48.6550357719224
688,5.410788498517575E-02
2,4, 1, 4, 0, 2,15.00,30.00,Friday
686,40.
687,48.4797634498323
688,5.585272290247603E-02
2,4, 1, 4, 0, 2,30.00,45.00,Friday
686,40.
687,48.3027277054543
688,5.754585587752981E-02
2,4, 1, 4, 0, 2,45.00,60.00,Friday
686,40.
687,48.1246554234948
688,5.898164992697945E-02
2,4, 1, 4, 0, 3, 0.00,15.00,Friday
686,40.
687,47.9464324660182
688,6.022957356161007E-02
2,4, 1, 4, 0, 3,15.00,30.00,Friday
686,40.
687,47.7686505702805
688,6.138035784253190E-02
2,4, 1, 4, 0, 3,30.00,45.00,Friday
686,40.
687,47.591562265415
688,6.255404012669911E-02
2,4, 1, 4, 0, 3,45.00,60.00,Friday
686,40.
687,47.415205946946
688,6.377536645311178E-02
2,4, 1, 4, 0, 4, 0.00,15.00,Friday
686,40.
687,47.2396647597869
688,6.498978169862336E-02
2,4, 1, 4, 0, 4,15.00,30.00,Friday
686,40.
687,47.064919046045
688,6.633150968222108E-02
2,4, 1, 4, 0, 4,30.00,45.00,Friday
686,40.
687,46.8909020626481
688,6.771067266337223E-02
2,4, 1, 4, 0, 4,45.00,60.00,Friday
686,40.
687,46.7178168312044
688,6.901432069499794E-02
2,4, 1, 4, 0, 5, 0.00,15.00,Friday
686,40.
687,46.5459835735329
688,7.025144438884860E-02
2,4, 1, 4, 0, 5,15.00,30.00,Friday
686,40.
687,46.3760019022326
688,7.115664470032801E-02
2,4, 1, 4, 0, 5,30.00,45.00,Friday
686,40.
687,46.2084580738584
688,7.196143995548496E-02
2,4, 1, 4, 0, 5,45.00,60.00,Friday
686,40.
687,46.0433181545134
688,7.293462315385273E-02
2,4, 1, 4, 0, 6, 0.00,15.00,Friday
686,40.
687,45.8802808464511
688,7.405475477377155E-02
2,4, 1, 4, 0, 6,15.00,30.00,Friday
686,40.
687,45.7192770110034
688,7.515653408168041E-02
2,4, 1, 4, 0, 6,30.00,45.00,Friday
686,40.
687,45.5605057894162
688,7.615685881922285E-02
2,4, 1, 4, 0, 6,45.00,60.00,Friday
686,40.
687,45.4041971904204
688,7.709020243396980E-02
2,4, 1, 4, 0, 7, 0.00,15.00,Friday
686,40.
687,45.2509309019355
688,7.753778847796797E-02
2,4, 1, 4, 0, 7,15.00,30.00,Friday
686,40.
687,45.1057383535157
688,7.314292035625934E-02
2,4, 1, 4, 0, 7,30.00,45.00,Friday
686,40.
687,44.9703464770771
688,7.128998305065327E-02
2,4, 1, 4, 0, 7,45.00,60.00,Friday
686,40.
687,44.8383905127577
688,7.333182965467720E-02
2,4, 1, 4, 0, 8, 0.00,15.00,Friday
686,40.
687,44.2316536670569
688,0.644298556708624
2,4, 1, 4, 0, 8,15.00,30.00,Friday
686,40.
687,43.3737573413567
688,0.575265468280578
2,4, 1, 4, 0, 8,30.00,45.00,Friday
686,40.
687,42.7490848288508
688,0.526622599974663
2,4, 1, 4, 0, 8,45.00,60.00,Friday
686,40.
687,42.2787805273887
688,0.484848316876501
2,4, 1, 4, 0, 9, 0.00,15.00,Friday
686,60.
687,43.0508607316939
688,0.25766520927075
2,4, 1, 4, 0, 9,15.00,30.00,Friday
686,60.
687,44.2659875473289
688,0.180573977850189
2,4, 1, 4, 0, 9,30.00,45.00,Friday
686,60.
687,45.1920371444676
688,0.145502642759552