Program Version,EnergyPlus, Version 8.3.0-6d97d074ea, YMD=2017.09.21 05:39
1,5,Environment Title[],Latitude[deg],Longitude[deg],Time Zone[],Elevation[m]
2,6,Day of Simulation[],Month[],Day of Month[],DST Indicator[1=yes 0=no],Hour[],StartMinute[],EndMinute[],DayType
3,3,Cumulative Day of Simulation[],Month[],Day of Month[],DST Indicator[1=yes 0=no],DayType  ! When Daily Meters Requested
4,2,Cumulative Days of Simulation[],Month[]  ! When Monthly Meters Requested
5,1,Cumulative Days of Simulation[] ! When Run Period Meters Requested
10,9,Electricity:Facility [J] !Monthly  [Value,Min,Day,Hour,Minute,Max,Day,Hour,Minute]
20,9,Electricity:Building [J] !Monthly  [Value,Min,Day,Hour,Minute,Max,Day,Hour,Minute]
40,9,InteriorLights:Electricity [J] !Monthly  [Value,Min,Day,Hour,Minute,Max,Day,Hour,Minute]
486,9,Electricity:Plant [J] !Monthly  [Value,Min,Day,Hour,Minute,Max,Day,Hour,Minute]
11,11,Electricity:Facility [J] !RunPeriod [Value,Min,Month,Day,Hour,Minute,Max,Month,Day,Hour,Minute]
21,11,Electricity:Building [J] !RunPeriod [Value,Min,Month,Day,Hour,Minute,Max,Month,Day,Hour,Minute]
41,11,InteriorLights:Electricity [J] !RunPeriod [Value,Min,Month,Day,Hour,Minute,Max,Month,Day,Hour,Minute]
487,11,Electricity:Plant [J] !RunPeriod [Value,Min,Month,Day,Hour,Minute,Max,Month,Day,Hour,Minute]
End of Data Dictionary
1,Chicago Ohare Intl Ap IL USA TMY3 WMO#=725300,  41.98, -87.92,  -6.00, 201.00
4,31, 1
10,8836872341.40922,105435.009, 1,19,15,14426227.8699287,17,12,60
20,8335692950.03963,105435.009, 1, 1,15,8698389.48, 1, 9,15
40,2273178794.04003,105435.009, 1, 1,15,2108700.18, 1, 8,15
486,501179391.369294,0.0, 1,15,60,6370547.94614273,17,18,30
4,59, 2
10,7741698489.68504,105435.009, 1,19,15,16525572.1482632,11,18,30
20,7258990489.63168,105435.009, 1, 1,15,8698389.48, 1, 9,15
40,1987239049.63204,105435.009, 1, 1,15,2108700.18, 1, 8,15
486,482708000.053148,0.0, 1,17,15,8881532.75826319,11,18,30
4,90, 3
10,8687346077.85314,105435.009, 1,19,15,19579236.9063917,27,14,30
20,7638134831.49562,105435.009, 1, 1,15,8698389.48, 1, 9,15
40,2102795819.49606,105435.009, 1, 1,15,2108700.18, 1, 8,15
486,1049211246.35726,0.0, 1,12,60,10880847.4263917,27,14,30
4,120, 4
10,9357886288.33029,105435.009, 1,19,15,22521879.8789554,15, 9,15
20,7976792129.90365,105435.009, 1, 1,15,8698389.48, 1, 9,15
40,2177865545.90405,105435.009, 1, 1,15,2108700.18, 1, 8,15
486,1381094158.4265,0.0, 1,10,60,18963078.6593398,17,20,45
4,151, 5
10,10635694804.8184,105435.009, 1, 1,15,21197519.5694513,31, 9,15
20,8335692950.03963,105435.009, 1, 1,15,8698389.48, 1, 9,15
40,2273178794.04003,105435.009, 1, 1,15,2108700.18, 1, 8,15
486,2300001854.77865,0.0, 1, 1,15,18000166.3624045,27,21,15
4,181, 6
10,9549262706.32369,105435.009, 1, 1,45,23665100.7023966,10, 9,15
20,7279234011.35969,105435.009, 1, 1,15,8698389.48, 3, 9,15
40,2007482571.36004,105435.009, 1, 1,15,2108700.18, 3, 8,15
486,2270028694.96384,0.0, 1, 1,45,19687898.6497266, 4,20,45
4,212, 7
10,9454306481.35529,105435.009, 1, 1,15,24803426.5843825,29,21,15
20,8335692950.03963,105435.009, 1, 1,15,8698389.48, 1, 9,15
40,2273178794.04003,105435.009, 1, 1,15,2108700.18, 1, 8,15
486,1118613531.3156,0.0, 1, 1,15,24697991.5753825,29,21,15
4,243, 8
10,9379607103.66008,105435.009, 1, 1,15,18528015.4373747,30, 9,15
20,7986913890.76761,105435.009, 1, 1,15,8698389.48, 1, 9,15
40,2187987306.76803,105435.009, 1, 1,15,2108700.18, 1, 8,15
486,1392693212.89233,0.0, 1, 1,15,15900360.6490524, 1,22,15
4,273, 9
10,9192150885.88801,105435.009, 1, 1,15,20711137.0454354,16, 9,15
20,7628013070.63167,105435.009, 1, 1,15,8698389.48, 2, 9,15
40,2092674058.63205,105435.009, 1, 1,15,2108700.18, 2, 8,15
486,1564137815.25621,0.0, 1, 1,15,14394013.6408413,26,21,30
4,304,10
10,9524084693.93069,105435.009, 1, 1,15,20006414.2362709,31,14,30
20,8335692950.03963,105435.009, 1, 1,15,8698389.48, 1, 9,15
40,2273178794.04003,105435.009, 1, 1,15,2108700.18, 1, 8,15
486,1188391743.89089,0.0, 1, 1,15,11308024.7562709,31,14,30
4,334,11
10,8105052533.22805,105435.009, 1, 1,15,20481764.6672237, 4,13,30
20,7628013070.63164,105435.009, 1, 1,15,8698389.48, 1, 9,15
40,2092674058.63205,105435.009, 1, 1,15,2108700.18, 1, 8,15
486,477039462.596151,0.0, 1, 1,15,11783375.1872237, 4,13,30
4,365,12
10,8429557172.87316,105435.009, 1,18,15,14576712.3472803, 5,14,30
20,7986913890.76765,105435.009, 1, 1,15,8698389.48, 2, 9,15
40,2187987306.76804,105435.009, 1, 1,15,2108700.18, 2, 8,15
486,442643282.105161,0.0, 1,18,15,5878322.86728028, 5,14,30
5,365
11,108893519579.382,105435.009, 1, 1,19,15,24803426.5843825, 7,29,21,15
21,94725777185.3835,105435.009, 1, 1, 1,15,8698389.48, 1, 1, 9,15
41,25929420893.3504,105435.009, 1, 1, 1,15,2108700.18, 1, 1, 8,15
487,14167742394.005,0.0, 1, 1,15,60,24697991.5753825, 7,29,21,15
End of Data
 Number of Records Written=          52
