Program Version,EnergyPlus, Version 8.6.0-198c6a3cff, YMD=2017.03.23 21:53
1,5,Environment Title[],Latitude[deg],Longitude[deg],Time Zone[],Elevation[m]
2,6,Day of Simulation[],Month[],Day of Month[],DST Indicator[1=yes 0=no],Hour[],StartMinute[],EndMinute[],DayType
3,3,Cumulative Day of Simulation[],Month[],Day of Month[],DST Indicator[1=yes 0=no],DayType  ! When Daily Report Variables Requested
4,2,Cumulative Days of Simulation[],Month[]  ! When Monthly Report Variables Requested
5,1,Cumulative Days of Simulation[] ! When Run Period Report Variables Requested
6,1,Environment,Site Outdoor Air Drybulb Temperature [C] !Hourly
7,1,SPACE1-1 PEOPLE 1,People Occupant Count [] !Hourly
8,1,SPACE2-1 PEOPLE 1,People Occupant Count [] !Hourly
9,1,SPACE3-1 PEOPLE 1,People Occupant Count [] !Hourly
10,1,SPACE4-1 PEOPLE 1,People Occupant Count [] !Hourly
11,1,SPACE5-1 PEOPLE 1,People Occupant Count [] !Hourly
304,1,PLENUM-1,Zone Air System Sensible Heating Rate [W] !Hourly
305,1,PLENUM-1,Zone Air System Sensible Cooling Rate [W] !Hourly
306,1,PLENUM-1,Zone Air Temperature [C] !Hourly
339,1,SPACE1-1,Zone Air System Sensible Heating Rate [W] !Hourly
340,1,SPACE1-1,Zone Air System Sensible Cooling Rate [W] !Hourly
341,1,SPACE1-1,Zone Air Temperature [C] !Hourly
374,1,SPACE2-1,Zone Air System Sensible Heating Rate [W] !Hourly
375,1,SPACE2-1,Zone Air System Sensible Cooling Rate [W] !Hourly
376,1,SPACE2-1,Zone Air Temperature [C] !Hourly
409,1,SPACE3-1,Zone Air System Sensible Heating Rate [W] !Hourly
410,1,SPACE3-1,Zone Air System Sensible Cooling Rate [W] !Hourly
411,1,SPACE3-1,Zone Air Temperature [C] !Hourly
444,1,SPACE4-1,Zone Air System Sensible Heating Rate [W] !Hourly
445,1,SPACE4-1,Zone Air System Sensible Cooling Rate [W] !Hourly
446,1,SPACE4-1,Zone Air Temperature [C] !Hourly
479,1,SPACE5-1,Zone Air System Sensible Heating Rate [W] !Hourly
480,1,SPACE5-1,Zone Air System Sensible Cooling Rate [W] !Hourly
481,1,SPACE5-1,Zone Air Temperature [C] !Hourly
575,1,SPACE1-1 VAV REHEAT,Zone Air Terminal VAV Damper Position [] !Hourly
576,1,SPACE1-1 VAV REHEAT,Zone Air Terminal Minimum Air Flow Fraction [] !Hourly
577,1,SPACE1-1 VAV REHEAT,Zone Air Terminal Outdoor Air Volume Flow Rate [m3/s] !Hourly
578,1,SPACE2-1 VAV REHEAT,Zone Air Terminal VAV Damper Position [] !Hourly
579,1,SPACE2-1 VAV REHEAT,Zone Air Terminal Minimum Air Flow Fraction [] !Hourly
580,1,SPACE2-1 VAV REHEAT,Zone Air Terminal Outdoor Air Volume Flow Rate [m3/s] !Hourly
581,1,SPACE3-1 VAV REHEAT,Zone Air Terminal VAV Damper Position [] !Hourly
582,1,SPACE3-1 VAV REHEAT,Zone Air Terminal Minimum Air Flow Fraction [] !Hourly
583,1,SPACE3-1 VAV REHEAT,Zone Air Terminal Outdoor Air Volume Flow Rate [m3/s] !Hourly
584,1,SPACE4-1 VAV REHEAT,Zone Air Terminal VAV Damper Position [] !Hourly
585,1,SPACE4-1 VAV REHEAT,Zone Air Terminal Minimum Air Flow Fraction [] !Hourly
586,1,SPACE4-1 VAV REHEAT,Zone Air Terminal Outdoor Air Volume Flow Rate [m3/s] !Hourly
587,1,SPACE5-1 VAV REHEAT,Zone Air Terminal VAV Damper Position [] !Hourly
588,1,SPACE5-1 VAV REHEAT,Zone Air Terminal Minimum Air Flow Fraction [] !Hourly
589,1,SPACE5-1 VAV REHEAT,Zone Air Terminal Outdoor Air Volume Flow Rate [m3/s] !Hourly
642,1,SPACE1-1 ZONE COIL,Heating Coil Gas Rate [W] !Hourly
667,1,SPACE2-1 ZONE COIL,Heating Coil Gas Rate [W] !Hourly
672,1,SPACE3-1 ZONE COIL,Heating Coil Gas Rate [W] !Hourly
677,1,SPACE4-1 ZONE COIL,Heating Coil Gas Rate [W] !Hourly
682,1,SPACE5-1 ZONE COIL,Heating Coil Gas Rate [W] !Hourly
687,1,MAIN HEATING COIL 1,Heating Coil Gas Rate [W] !Hourly
690,1,SUPPLY FAN 1,Fan Electric Power [W] !Hourly
712,1,VAV SYS 1,Air System Outdoor Air Flow Fraction [] !Hourly
724,1,MAIN COOLING COIL 1,Cooling Coil Electric Power [W] !Hourly
736,1,MAIN COOLING COIL 1,Cooling Coil Runtime Fraction [] !Hourly
800,1,MAIN COOLING COIL 1,Cooling Coil Basin Heater Electric Power [W] !Hourly
801,1,MAIN COOLING COIL 1,Cooling Coil Basin Heater Electric Energy [J] !Hourly
802,1,DX COOLING COIL SYSTEM 1,Coil System Compressor Speed Ratio [] !Hourly
803,1,OUTSIDE AIR INLET NODE 1,System Node Standard Density Volume Flow Rate [m3/s] !Hourly
804,1,OUTSIDE AIR INLET NODE 1,System Node Current Density Volume Flow Rate [m3/s] !Hourly
805,1,SPACE1-1 IN NODE,System Node Temperature [C] !Hourly
806,1,SPACE1-1 IN NODE,System Node Standard Density Volume Flow Rate [m3/s] !Hourly
807,1,SPACE1-1 IN NODE,System Node Current Density Volume Flow Rate [m3/s] !Hourly
808,1,SPACE2-1 IN NODE,System Node Temperature [C] !Hourly
809,1,SPACE2-1 IN NODE,System Node Standard Density Volume Flow Rate [m3/s] !Hourly
810,1,SPACE2-1 IN NODE,System Node Current Density Volume Flow Rate [m3/s] !Hourly
811,1,SPACE3-1 IN NODE,System Node Temperature [C] !Hourly
812,1,SPACE3-1 IN NODE,System Node Standard Density Volume Flow Rate [m3/s] !Hourly
813,1,SPACE3-1 IN NODE,System Node Current Density Volume Flow Rate [m3/s] !Hourly
814,1,SPACE4-1 IN NODE,System Node Temperature [C] !Hourly
815,1,SPACE4-1 IN NODE,System Node Standard Density Volume Flow Rate [m3/s] !Hourly
816,1,SPACE4-1 IN NODE,System Node Current Density Volume Flow Rate [m3/s] !Hourly
817,1,SPACE5-1 IN NODE,System Node Temperature [C] !Hourly
818,1,SPACE5-1 IN NODE,System Node Standard Density Volume Flow Rate [m3/s] !Hourly
819,1,SPACE5-1 IN NODE,System Node Current Density Volume Flow Rate [m3/s] !Hourly
729,9,Cooling:Electricity [J] !Monthly  [Value,Min,Day,Hour,Minute,Max,Day,Hour,Minute]
635,9,Heating:Gas [J] !Monthly  [Value,Min,Day,Hour,Minute,Max,Day,Hour,Minute]
695,9,Fans:Electricity [J] !Monthly  [Value,Min,Day,Hour,Minute,Max,Day,Hour,Minute]
604,9,HeatingCoils:EnergyTransfer [J] !Monthly  [Value,Min,Day,Hour,Minute,Max,Day,Hour,Minute]
717,9,CoolingCoils:EnergyTransfer [J] !Monthly  [Value,Min,Day,Hour,Minute,Max,Day,Hour,Minute]
46,9,InteriorLights:Electricity [J] !Monthly  [Value,Min,Day,Hour,Minute,Max,Day,Hour,Minute]
161,9,InteriorEquipment:Electricity [J] !Monthly  [Value,Min,Day,Hour,Minute,Max,Day,Hour,Minute]
730,11,Cooling:Electricity [J] !RunPeriod [Value,Min,Month,Day,Hour,Minute,Max,Month,Day,Hour,Minute]
636,11,Heating:Gas [J] !RunPeriod [Value,Min,Month,Day,Hour,Minute,Max,Month,Day,Hour,Minute]
696,11,Fans:Electricity [J] !RunPeriod [Value,Min,Month,Day,Hour,Minute,Max,Month,Day,Hour,Minute]
605,11,HeatingCoils:EnergyTransfer [J] !RunPeriod [Value,Min,Month,Day,Hour,Minute,Max,Month,Day,Hour,Minute]
718,11,CoolingCoils:EnergyTransfer [J] !RunPeriod [Value,Min,Month,Day,Hour,Minute,Max,Month,Day,Hour,Minute]
47,11,InteriorLights:Electricity [J] !RunPeriod [Value,Min,Month,Day,Hour,Minute,Max,Month,Day,Hour,Minute]
162,11,InteriorEquipment:Electricity [J] !RunPeriod [Value,Min,Month,Day,Hour,Minute,Max,Month,Day,Hour,Minute]
End of Data Dictionary
1,Pittsburgh Allegheny Co Ap PA USA TMY3 WMO#=725205,  40.35, -79.92,  -5.00, 380.00
2,1, 2, 1, 0, 1, 0.00,60.00,Tuesday
6,-7.875
7,0.0
8,0.0
9,0.0
10,0.0
11,0.0
304,1191.0140206914966
305,0.0
306,16.72419745673495
339,633.4214329983815
340,0.0
341,16.361722985521135
374,301.09963697098126
375,0.0
376,16.899279454618939
409,637.7002457788444
410,0.0
411,16.4646140066112
444,312.71538169793168
445,0.0
446,16.96280426323471
479,0.0
480,332.94267701378569
481,18.080881724478127
575,1.0
576,0.1
577,0.0018861091775592572
578,1.0
579,0.1
580,0.001677169468639774
581,1.0
582,0.1
583,0.0020845513292988046
584,1.0
585,0.1
586,0.0019416433548759447
587,1.0
588,0.1
589,0.0020295026696262226
642,0.0
667,0.0
672,0.0
677,0.0
682,0.0
687,0.0
690,2057.642387577576
712,0.004002954275777199
724,0.0
736,0.0
800,0.0
801,0.0
802,0.0
803,0.009618976000000002
804,0.00861823468561871
805,17.516689384183107
806,0.4711792959945956
807,0.4641554661524782
808,17.516689384183107
809,0.4189829193874918
810,0.4127371765088296
811,17.516689384183107
812,0.5207532201686405
813,0.5129903960392857
814,17.516689384183107
815,0.48505259393675245
816,0.4778219560177033
817,17.516689384183107
818,0.5070012120566082
819,0.4994433879469644
2,1, 2, 1, 0, 2, 0.00,60.00,Tuesday
6,-10.25
7,0.0
8,0.0
9,0.0
10,0.0
11,0.0
304,1215.3435361511074
305,0.0
306,16.08596783352392
339,702.5600569546418
340,0.0
341,15.736286773719119
374,340.94452423368377
375,0.0
376,16.318252013260027
409,707.1944475721348
410,0.0
411,15.850601711038046
444,355.87889418976058
445,0.0
446,16.38703274259056
479,0.0
480,310.61690740221868
481,17.54381171834875
575,1.0
576,0.1
577,0.0018861091775592572
578,1.0
579,0.1
580,0.001677169468639774
581,1.0
582,0.1
583,0.0020845513292988046
584,1.0
585,0.1
586,0.0019416433548759447
587,1.0
588,0.1
589,0.0020295026696262226
642,0.0
667,0.0
672,0.0
677,0.0
682,0.0
687,511.8012351810439
690,2057.642387577576
712,0.004002954275777199
724,0.0
736,0.0
800,0.0
801,0.0
802,0.0
803,0.009618976000000002
804,0.008549364548813808
805,17.017411766067139
806,0.4711792959945956
807,0.4638637213582406
808,17.017411766067139
809,0.4189829193874918
810,0.4124777506668096
811,17.017411766067139
812,0.5207532201686405
813,0.5126679560629153
814,17.017411766067139
815,0.48505259393675245
816,0.4775216211549122
817,17.017411766067139
818,0.5070012120566082
819,0.49912946293891105
2,1, 2, 1, 0, 3, 0.00,60.00,Tuesday
6,-12.187499999999999
7,0.0
8,0.0
9,0.0
10,0.0
11,0.0
304,1599.6673206243577
305,0.0
306,15.603282657574134
339,881.3723358650846
340,0.0
341,15.392715139958561
374,453.199629635498
375,0.0
376,16.070592837467996
409,895.6541953257474
410,0.0
411,15.522161659427673
444,474.22481609753006
445,0.0
446,16.15994628638881
479,0.0
480,166.49821511953133
481,17.282193749625486
575,1.0
576,0.1
577,0.0018861091775592572
578,1.0
579,0.1
580,0.001677169468639774
581,1.0
582,0.1
583,0.0020845513292988046
584,1.0
585,0.1
586,0.0019416433548759447
587,1.0
588,0.1
589,0.0020295026696262226
642,0.0
667,0.0
672,0.0
677,0.0
682,0.0
687,2343.594939970374
690,2057.642387577576
712,0.004002954275777199
724,0.0
736,0.0
800,0.0
801,0.0
802,0.0
803,0.009618976000000002
804,0.008485076843759852
805,17.000012348288587
806,0.4711792959945956
807,0.4638076332730214
808,17.000012348288587
809,0.4189829193874918
810,0.4124278759166078
811,17.000012348288587
812,0.5207532201686405
813,0.5126059668133043
814,17.000012348288587
815,0.48505259393675245
816,0.47746388162464045
817,17.000012348288587
818,0.5070012120566082
819,0.4990691106962939
2,1, 2, 1, 0, 4, 0.00,60.00,Tuesday
6,-14.2125
7,0.0
8,0.0
9,0.0
10,0.0
11,0.0
304,2016.7726137740228
305,0.0
306,15.258979873210118
339,1008.9991390959385
340,0.0
341,15.159860978788086
374,527.058456351896
375,0.0
376,15.919055712724923
409,1028.5678023219216
410,0.0
411,15.30274870374251
444,550.4936025902398
445,0.0
446,16.02477822670406
479,0.0
480,80.20230002899007
481,17.135945525079046
575,1.0
576,0.1
577,0.0018861091775592572
578,1.0
579,0.1
580,0.001677169468639774
581,1.0
582,0.1
583,0.0020845513292988046
584,1.0
585,0.1
586,0.0019416433548759447
587,1.0
588,0.1
589,0.0020295026696262226
642,0.0
667,0.0
672,0.0
677,0.0
682,0.0
687,3653.5534443860442
690,2057.642387577576
712,0.004002954275777199
724,0.0
736,0.0
800,0.0
801,0.0
802,0.0
803,0.009618976000000002
804,0.008417914024701472
805,17.000010972641925
806,0.4711792959945956
807,0.4637824084524713
808,17.000010972641925
809,0.4189829193874918
810,0.4124054454553271
811,17.000010972641925
812,0.5207532201686405
813,0.5125780880277946
814,17.000010972641925
815,0.48505259393675245
816,0.4774379140901087
817,17.000010972641925
818,0.5070012120566082
819,0.4990419681314539
2,1, 2, 1, 0, 5, 0.00,60.00,Tuesday
6,-15.0
7,0.0
8,0.0
9,0.0
10,0.0
11,0.0
304,2402.5219092836014
305,0.0
306,15.005097484218905
339,1073.7313593349227
340,0.0
341,15.041711790683476
374,564.1517363601392
375,0.0
376,15.842918786247733
409,1095.0541568594572
410,0.0
411,15.192949364084813
444,587.7898587727987
445,0.0
446,15.958649461173384
479,0.0
480,41.752257049282437
481,17.070777712662914
575,1.0
576,0.1
577,0.0018861091775592572
578,1.0
579,0.1
580,0.001677169468639774
581,1.0
582,0.1
583,0.0020845513292988046
584,1.0
585,0.1
586,0.0019416433548759447
587,1.0
588,0.1
589,0.0020295026696262226
642,0.0
667,0.0
672,0.0
677,0.0
682,0.0
687,4634.517213313141
690,2057.642387577576
712,0.004002954275777199
724,0.0
736,0.0
800,0.0
801,0.0
802,0.0
803,0.009618976000000002
804,0.008391090508950126
805,17.000008772994165
806,0.4711792959945956
807,0.46376097032202426
808,17.000008772994165
809,0.4189829193874918
810,0.41238638220157788
811,17.000008772994165
812,0.5207532201686405
813,0.5125543943392994
814,17.000008772994165
815,0.48505259393675245
816,0.47741584474013745
817,17.000008772994165
818,0.5070012120566082
819,0.49901890014393138
2,1, 2, 1, 0, 6, 0.00,60.00,Tuesday
6,-15.625
7,0.0
8,0.0
9,0.0
10,0.0
11,0.0
304,2733.5270522985156
305,0.0
306,14.851338034845155
339,1101.66217175349
340,0.0
341,14.990708575104638
374,583.1617806455429
375,0.0
376,15.803883502953122
409,1124.579067238234
410,0.0
411,15.144167529984589
444,606.975504201801
445,0.0
446,15.924617464822607
479,0.0
480,29.05677514789295
481,17.049256693430054
575,1.0
576,0.1
577,0.0018861091775592572
578,1.0
579,0.1
580,0.001677169468639774
581,1.0
582,0.1
583,0.0020845513292988046
584,1.0
585,0.1
586,0.0019416433548759447
587,1.0
588,0.1
589,0.0020295026696262226
642,0.0
667,0.0
672,0.0
677,0.0
682,0.0
687,5244.350924303303
690,2057.642387577576
712,0.004002954275777199
724,0.0
736,0.0
800,0.0
801,0.0
802,0.0
803,0.009618976000000002
804,0.008364350907953816
805,17.000005262811365
806,0.4711792959945956
807,0.46345117437847457
808,17.000005262811365
809,0.4189829193874918
810,0.41211090488339716
811,17.000005262811365
812,0.5207532201686405
813,0.5122120040081236
814,17.000005262811365
815,0.48505259393675245
816,0.4770969272340262
817,17.000005262811365
818,0.5070012120566082
819,0.4986855516283978
2,1, 2, 1, 0, 7, 0.00,60.00,Tuesday
6,-15.375
7,0.0
8,0.0
9,0.0
10,0.0
11,0.0
304,1991.1592315001503
305,0.0
306,14.239216313398995
339,748.6542393329867
340,0.0
341,14.442009289679998
374,264.81449257855737
375,0.0
376,14.900481717856412
409,706.6531892099711
410,0.0
411,14.518459493421436
444,258.4361084525299
445,0.0
446,14.951043281395414
479,22.933116229726467
480,2.5122295241963
481,16.962112858098498
575,0.5341502029610625
576,0.1
577,0.05037328
578,0.2588811733808491
579,0.1
580,0.02170938
581,0.47023874453104938
582,0.1
583,0.049011839999999997
584,0.22361861611178386
585,0.1
586,0.02170938
587,0.9135727820163316
588,0.1
589,0.09270492
642,0.0
667,0.0
672,0.0
677,0.0
682,0.0
687,13979.641561876822
690,527.7882308835074
712,0.20014771378885999
724,0.0
736,0.0
800,0.0
801,0.0
802,0.0
803,0.23550880000000003
804,0.2049173798166849
805,17.00004012691094
806,0.2516805165865638
807,0.24720874371850866
808,17.00004012691094
809,0.1084667897975676
810,0.10653958917719307
811,17.00004012691094
812,0.2448783404626026
813,0.24052742632071109
814,17.00004012691094
815,0.1084667897975676
816,0.10653958917719309
817,17.00004012691094
818,0.4631825077842076
819,0.45495284027017587
2,1, 2, 1, 0, 8, 0.00,60.00,Tuesday
6,-15.0
7,0.0
8,0.0
9,0.0
10,0.0
11,0.0
304,3966.3836984920576
305,0.0
306,14.884229358778019
339,3734.553402745064
340,0.0
341,17.722685129850445
374,1502.1548872531146
375,0.0
376,18.02859917843039
409,3612.3082672480364
410,0.0
411,17.734849977020866
444,1678.238805904576
445,0.0
446,18.039703254898059
479,1663.086833452497
480,0.0
481,18.115701277203557
575,0.5341502029610625
576,0.1
577,0.05037328
578,0.2588811733808491
579,0.1
580,0.02170938
581,0.47023874453104938
582,0.1
583,0.049011839999999997
584,0.22361861611178386
585,0.1
586,0.02170938
587,0.9135727820163316
588,0.1
589,0.09270492
642,4930.347827849811
667,2038.8735101100717
672,4774.749499895845
677,2260.6577566073734
682,2828.0562627267004
687,13289.933261421373
690,527.7882308835074
712,0.20014771378885996
724,0.0
736,0.0
800,0.0
801,0.0
802,0.0
803,0.23550880000000003
804,0.20509422393326649
805,30.49694692003156
806,0.2516805165865638
807,0.25832199290374827
808,29.950934028994828
809,0.1084667897975676
810,0.11112887777975736
811,30.43407590821822
812,0.24487834046260258
813,0.25128827665819655
814,31.359707221127647
815,0.1084667897975676
816,0.11164539010200536
817,21.20672740490273
818,0.4631825077842076
819,0.46085996675307897
2,1, 2, 1, 0, 9, 0.00,60.00,Tuesday
6,-14.375
7,11.0
8,5.0
9,11.0
10,5.0
11,20.0
304,7292.78745861039
305,0.0
306,17.77460012213929
339,1951.9863718257297
340,0.0
341,20.495343385072674
374,81.99286765233842
375,789.9802276975813
376,21.308747256236896
409,1748.9842159992322
410,0.0
411,20.455766422735687
444,820.7148024159329
445,0.0
446,20.587549114050327
479,179.85938230640068
480,496.1983373978991
481,20.64798510790567
575,1.0
576,0.1
577,0.09430545887796285
578,0.5403077130511687
579,0.1
580,0.045309379999999999
581,0.9683795124771639
582,0.1
583,0.10093184
584,0.46671166345989337
585,0.1
586,0.04530938000000001
587,1.0
588,0.1
589,0.10147513348131111
642,4828.40811737297
667,530.5221169748334
672,4713.726436110841
677,2203.7662699742364
682,2288.159574472864
687,14812.312171765887
690,1367.6024885134643
712,0.20014771378885996
724,0.0
736,0.0
800,0.0
801,0.0
802,0.0
803,0.38733119235927396
804,0.33783995189531088
805,24.063403686186036
806,0.4711792959945956
807,0.4727058423216356
808,18.615358608832318
809,0.22637970298175787
810,0.22295041644420428
811,23.44292166502654
812,0.5042867494678212
813,0.5048643296822383
814,23.710029171013255
815,0.2263797029817579
816,0.22684311527784779
817,20.110838287888929
818,0.5070012120566082
819,0.5018797356357847
2,1, 2, 1, 0,10, 0.00,60.00,Tuesday
6,-12.75
7,11.0
8,5.0
9,11.0
10,5.0
11,20.0
304,6098.609011674158
305,0.0
306,19.429981866349196
339,106.38622514560234
340,241.81428187901066
341,21.099993953164487
374,0.0
375,2013.0982276590646
376,23.58182714512072
409,85.60088718299737
410,183.9749255564741
411,21.09956396025597
444,36.300436543324398
445,89.16610672238153
446,21.100189805088229
479,0.0
480,2618.304093001191
481,21.447577208483805
575,1.0
576,0.1
577,0.09430545887796285
578,0.6248703939264104
579,0.1
580,0.052400677327514199
581,0.9683795124771639
582,0.1
583,0.10093184
584,0.46671166345989337
585,0.1
586,0.04530938000000001
587,1.0
588,0.1
589,0.10147513348131111
642,2632.6447397317174
667,0.0
672,2875.4962177573107
677,1280.170602539235
682,0.0
687,10031.868122056863
690,1415.8251087503077
712,0.20014771378885996
724,0.0
736,0.0
800,0.0
801,0.0
802,0.0
803,0.39442248968678819
804,0.34610504681317658
805,20.8525403459285
806,0.4711792959945956
807,0.4674961122015814
808,17.00197274922573
809,0.2618100218860995
810,0.2563630599625118
811,20.93161231310431
812,0.5042867494678212
813,0.5004793494133146
814,20.899129523574744
815,0.2263797029817579
816,0.22464570438745247
817,17.00197274922573
818,0.5070012120566082
819,0.49644974546733047
2,1, 2, 1, 0,11, 0.00,60.00,Tuesday
6,-10.125
7,11.0
8,5.0
9,11.0
10,5.0
11,20.0
304,4647.106321138088
305,0.0
306,20.4517111168814
339,0.0
340,1307.4763029538335
341,21.100277872771636
374,0.0
375,2749.8295268764728
376,23.90304369034853
409,0.0
410,918.0173069157081
411,21.10040051117356
444,0.0
445,426.37616805060727
446,21.10038769029956
479,0.0
480,2976.248059845252
481,22.05642469271005
575,1.0
576,0.1
577,0.09430545887796285
578,0.8190775776203898
579,0.1
580,0.06868659528161712
581,0.9683795124771639
582,0.1
583,0.10093184
584,0.46671166345989337
585,0.1
586,0.04530938000000001
587,1.0
588,0.1
589,0.10147513348131111
642,1167.1882790017141
667,0.0
672,1850.655857111446
677,812.950745129375
682,0.0
687,6520.6539840282385
690,1528.2536245900042
712,0.20014771378885996
724,0.0
736,0.0
800,0.0
801,0.0
802,0.0
803,0.4107084076408911
804,0.36382736946856378
805,18.711369458444304
806,0.4711792959945956
807,0.4638706649167156
808,17.004513580108353
809,0.34317951467622589
810,0.33587814133969826
811,19.533145557222544
812,0.5042867494678212
813,0.4978623479300803
814,19.478881958639414
815,0.2263797029817579
816,0.22345428498659387
817,17.004513580108353
818,0.5070012120566082
819,0.4962176905258438
2,1, 2, 1, 0,12, 0.00,60.00,Tuesday
6,-8.375
7,8.8
8,4.0
9,8.8
10,4.0
11,16.0
304,3174.4530892729927
305,0.0
306,21.091068821722467
339,0.0
340,2153.4345116886466
341,21.227706233056457
374,0.0
375,2596.2323012141624
376,23.90300758587033
409,0.0
410,1149.2714776409507
411,21.100262865277516
444,0.0
445,539.2633821054799
446,21.10024587950706
479,0.0
480,3083.7114619420886
481,22.2251117968394
575,0.9745913024922169
576,0.1
577,0.09190928000000001
578,0.7717741142508602
579,0.1
580,0.06471979905540237
581,0.8687513588879412
582,0.1
583,0.09054784000000002
584,0.4180930539902714
585,0.1
586,0.04058938
587,1.0
588,0.1
589,0.10147513348131111
642,132.94811900868738
667,0.0
672,1262.1303739432065
677,535.6722876535414
682,0.0
687,3626.62511563745
690,1380.5099243316981
712,0.20014771378885996
724,0.0
736,0.0
800,0.0
801,0.0
802,0.0
803,0.3892414325367135
804,0.34724236379447817
805,17.19110435555426
806,0.45920724379073876
807,0.44991694127667206
808,16.991646953493029
809,0.3233601714965211
810,0.3165953301995574
811,18.913549620237459
812,0.45240506766677759
813,0.44588202593057488
814,18.81131530433874
815,0.20279712034491985
816,0.19980310492599183
817,16.991646953493029
818,0.5070012120566082
819,0.4964028668224647
2,1, 2, 1, 0,13, 0.00,60.00,Tuesday
6,-6.75
7,4.4
8,2.0
9,4.4
10,2.0
11,8.0
304,2071.8154337629567
305,0.0
306,21.568543166656
339,0.0
340,2275.6394420157294
341,22.513241463013956
374,0.0
375,1731.0427979205272
376,23.90137009801883
409,0.0
410,988.3868918059992
411,21.100111639408789
444,0.0
445,485.62813281660717
446,21.100096670702376
479,0.0
480,2928.467919359215
481,21.973372623109819
575,0.7543707527266397
576,0.1
577,0.07114128
578,0.5155011326482877
579,0.1
580,0.04322913803634651
581,0.6694950517094953
582,0.1
583,0.06977984000000001
584,0.32085583505102768
585,0.1
586,0.031149379999999999
587,1.0
588,0.1
589,0.10147513348131113
642,0.0
667,0.0
672,838.8907216079913
677,318.972268783996
682,0.0
687,1480.2019520371803
690,932.6453313642605
712,0.20014771378885996
724,0.0
736,0.0
800,0.0
801,0.0
802,0.0
803,0.3167747715176576
804,0.284481984988271
805,17.0022906141496
806,0.35544388018865127
807,0.34817913885910375
808,17.0022906141496
809,0.21598616950453823
810,0.21157236276996745
811,18.65977951123142
812,0.3486417040646901
813,0.3434668937067973
814,18.41410757677004
815,0.15563195507124373
816,0.153192865046686
817,17.0022906141496
818,0.5070012120566082
819,0.49663886552414446
2,1, 2, 1, 0,14, 0.00,60.00,Tuesday
6,-5.250000000000001
7,8.8
8,4.0
9,8.8
10,4.0
11,16.0
304,1574.2290975015721
305,0.0
306,22.20129879672301
339,0.0
340,3545.2909436482933
341,23.790367568952303
374,0.0
375,1352.9942937072592
376,22.975579351847644
409,0.0
410,1440.9357500937276
411,21.10007200289507
444,0.0
445,723.9672872244424
446,21.1000421033971
479,0.0
480,3063.7087742252834
481,22.43353769070641
575,0.9872956512461084
576,0.1
577,0.09310736943898143
578,0.48402240511710467
579,0.1
580,0.040589379999999997
581,0.8687513588879412
582,0.1
583,0.09054784000000002
584,0.4180930539902714
585,0.1
586,0.04058938
587,1.0
588,0.1
589,0.10147513348131111
642,0.0
667,0.0
672,738.7605361984889
677,233.635486341534
682,0.0
687,48.12351095175435
690,1230.0436441769168
712,0.20014771378885996
724,0.0
736,0.0
800,0.0
801,0.0
802,0.0
803,0.3663091029202925
804,0.33088284277979326
805,17.233824788200999
806,0.4651932698926672
807,0.4560691168981935
808,17.233824788200999
809,0.20279712034491979
810,0.19881783612040528
811,18.358667194941377
812,0.45240506766677759
813,0.4452460169102968
814,18.02741817996353
815,0.20279712034491985
816,0.19936117276943578
817,17.233824788200999
818,0.5070012120566082
819,0.4970528364509033
2,1, 2, 1, 0,15, 0.00,60.00,Tuesday
6,-4.3
7,11.0
8,5.0
9,11.0
10,5.0
11,20.0
304,1194.2016360614516
305,0.0
306,22.843783854000493
339,0.0
340,4057.7363533054545
341,25.355038888585754
374,0.0
375,1081.5991233327095
376,22.05780072989694
409,0.0
410,1634.6538019172147
411,21.10000518950882
444,0.0
445,841.3795860729904
446,21.213375448213286
479,0.0
480,3052.7132965871006
481,23.125379966001025
575,1.0
576,0.1
577,0.09430545887796285
578,0.5403077130511687
579,0.1
580,0.045309379999999999
581,0.9683795124771639
582,0.1
583,0.10093184
584,0.46671166345989337
585,0.1
586,0.04530938000000001
587,1.0
588,0.1
589,0.10147513348131111
642,0.0
667,0.0
672,266.36941287731477
677,22.45679450026028
682,0.0
687,0.0
690,1367.6024885134646
712,0.20014771378885996
724,0.0
736,0.0
800,0.0
801,0.0
802,0.0
803,0.38733119235927396
804,0.35114290786826027
805,17.94726178901741
806,0.4711792959945956
807,0.4632052268879453
808,17.94726178901741
809,0.22637970298175787
810,0.22254853422866345
811,18.31100746764746
812,0.5042867494678212
813,0.4963718193534456
814,18.01558033697255
815,0.2263797029817579
816,0.22260075771582897
817,17.94726178901741
818,0.5070012120566082
819,0.4984209057136459
2,1, 2, 1, 0,16, 0.00,60.00,Tuesday
6,-3.375
7,11.0
8,5.0
9,11.0
10,5.0
11,20.0
304,976.9579141509903
305,0.0
306,23.3484131631889
339,0.0
340,4168.2755607123545
341,26.158188795052536
374,0.0
375,860.576235532272
376,21.82132878916623
409,0.0
410,1423.589679942494
411,21.11363397648902
444,0.0
445,909.7827665929557
446,22.008317060682918
479,0.0
480,2941.8892552959073
481,23.539810633144293
575,1.0
576,0.1
577,0.09430545887796285
578,0.5403077130511687
579,0.1
580,0.045309379999999999
581,0.9683795124771639
582,0.1
583,0.10093184
584,0.46671166345989337
585,0.1
586,0.04530938000000001
587,1.0
588,0.1
589,0.10147513348131111
642,0.0
667,0.0
672,97.98181246554542
677,0.0
682,0.0
687,0.0
690,1367.6024885134646
712,0.20014771378885996
724,0.0
736,0.0
800,0.0
801,0.0
802,0.0
803,0.38733119235927396
804,0.3521406550602899
805,18.551787065147268
806,0.4711792959945956
807,0.4640118342314057
808,18.551787065147268
809,0.22637970298175787
810,0.2229360714833512
811,18.685522199750694
812,0.5042867494678212
813,0.4968433105348583
814,18.551787065147268
815,0.2263797029817579
816,0.22293607148335127
817,18.551787065147268
818,0.5070012120566082
819,0.4992888362536009
2,1, 2, 1, 0,17, 0.00,60.00,Tuesday
6,-3.0
7,11.0
8,5.0
9,11.0
10,5.0
11,20.0
304,686.5645567313722
305,0.0
306,23.307800996207147
339,0.0
340,3420.5285890817863
341,24.946206086236985
374,0.0
375,666.6689868176122
376,21.30835859674717
409,0.0
410,719.71734521444
411,21.10032250636322
444,0.0
445,984.2429004555355
446,22.44440225290931
479,0.0
480,2872.7864737491714
481,23.57535045458176
575,1.0
576,0.1
577,0.09430545887796285
578,0.5403077130511687
579,0.1
580,0.045309379999999999
581,0.9683795124771639
582,0.1
583,0.10093184
584,0.46671166345989337
585,0.1
586,0.04530938000000001
587,1.0
588,0.1
589,0.10147513348131111
642,0.0
667,22.98971620274461
672,855.001780622251
677,0.0
682,0.0
687,0.0
690,1367.6024885134643
712,0.20014771378885996
724,0.0
736,0.0
800,0.0
801,0.0
802,0.0
803,0.38733119235927396
804,0.35249735593568706
805,18.706517234333505
806,0.4711792959945956
807,0.46420794926997446
808,18.776392389795008
809,0.22637970298175787
810,0.22308369759739256
811,19.873203767731448
812,0.5042867494678212
813,0.49881163561900768
814,18.706517234333505
815,0.2263797029817579
816,0.22303029562384059
817,18.706517234333505
818,0.5070012120566082
819,0.4994998611502849
2,1, 2, 1, 0,18, 0.00,60.00,Tuesday
6,-3.625
7,11.0
8,5.0
9,11.0
10,5.0
11,20.0
304,591.6202681916043
305,0.0
306,22.37405430024375
339,0.0
340,2140.9512232489087
341,21.982869192082373
374,0.0
375,417.2264512032476
376,21.100319322793973
409,0.0
410,470.61318231716498
411,21.10023537129503
444,0.0
445,764.6064314890762
446,21.362932308603999
479,0.0
480,3076.259225097295
481,23.094776083086395
575,1.0
576,0.1
577,0.09430545887796285
578,0.5403077130511687
579,0.1
580,0.045309379999999999
581,0.9683795124771639
582,0.1
583,0.10093184
584,0.46671166345989337
585,0.1
586,0.04530938000000001
587,1.0
588,0.1
589,0.10147513348131111
642,133.9182449541399
667,537.6331129636251
672,1770.8215246168922
677,190.05642981667755
682,0.0
687,0.0
690,1367.6024885134646
712,0.20014771378885996
724,0.0
736,0.0
800,0.0
801,0.0
802,0.0
803,0.38733119235927396
804,0.35167825978358227
805,18.077572175518286
806,0.4711792959945956
807,0.46327849479529317
808,19.515991552144976
809,0.22637970298175787
810,0.22368311721018314
811,20.2980052661514
812,0.5042867494678212
813,0.4996112083104115
814,18.459636929924004
815,0.2263797029817579
816,0.22287575129263755
817,17.8820298567446
818,0.5070012120566082
819,0.4981650243244269
2,1, 2, 1, 0,19, 0.00,60.00,Tuesday
6,-4.625
7,5.5
8,2.5
9,5.5
10,2.5
11,10.0
304,1541.561260501888
305,0.0
306,21.649238627551548
339,554.9430141175509
340,0.0
341,21.342186436437396
374,335.06670944200217
375,0.0
376,21.666974705857869
409,729.6430857223916
410,0.0
411,21.150209352054185
444,315.25567048649767
445,0.0
446,21.795677237914015
479,0.0
480,611.533355162158
481,23.390324558028888
575,1.0
576,0.1
577,0.0018861091775592572
578,1.0
579,0.1
580,0.0016771694686397738
581,1.0
582,0.1
583,0.002084551329298804
584,1.0
585,0.1
586,0.0019416433548759445
587,1.0
588,0.1
589,0.0020295026696262226
642,0.0
667,0.0
672,0.0
677,0.0
682,0.0
687,0.0
690,2057.642387577576
712,0.004002954275777199
724,0.0
736,0.0
800,0.0
801,0.0
802,0.0
803,0.009618976000000002
804,0.00870115625106133
805,22.354204542596926
806,0.4711792959945956
807,0.4704028280489423
808,22.354204542596926
809,0.4189829193874918
810,0.4182924671340796
811,22.354204542596926
812,0.5207532201686405
813,0.5198950581345825
814,22.354204542596926
815,0.48505259393675245
816,0.4842532638423498
817,22.354204542596926
818,0.5070012120566082
819,0.5061657122948065
2,1, 2, 1, 0,20, 0.00,60.00,Tuesday
6,-5.0
7,1.1
8,0.5
9,1.1
10,0.5
11,2.0
304,1283.5863803353577
305,0.0
306,20.796009081719853
339,764.8720876026077
340,0.0
341,20.223588691630924
374,360.34117615216317
375,0.0
376,20.87925930995931
409,821.5497268691943
410,0.0
411,20.26283296258144
444,362.3802116578522
445,0.0
446,20.976283439330115
479,0.0
480,485.41392979364039
481,22.44047311788865
575,1.0
576,0.1
577,0.0018861091775592572
578,1.0
579,0.1