Program Version,EnergyPlus, Version 8.6.0-198c6a3cff, YMD=2017.09.02 01:05
1,5,Environment Title[],Latitude[deg],Longitude[deg],Time Zone[],Elevation[m]
2,6,Day of Simulation[],Month[],Day of Month[],DST Indicator[1=yes 0=no],Hour[],StartMinute[],EndMinute[],DayType
3,3,Cumulative Day of Simulation[],Month[],Day of Month[],DST Indicator[1=yes 0=no],DayType  ! When Daily Meters Requested
4,2,Cumulative Days of Simulation[],Month[]  ! When Monthly Meters Requested
5,1,Cumulative Days of Simulation[] ! When Run Period Meters Requested
11,9,Electricity:Facility [J] !Monthly  [Value,Min,Day,Hour,Minute,Max,Day,Hour,Minute]
21,9,Electricity:Building [J] !Monthly  [Value,Min,Day,Hour,Minute,Max,Day,Hour,Minute]
41,9,InteriorLights:Electricity [J] !Monthly  [Value,Min,Day,Hour,Minute,Max,Day,Hour,Minute]
691,9,Electricity:HVAC [J] !Monthly  [Value,Min,Day,Hour,Minute,Max,Day,Hour,Minute]
784,9,Electricity:Plant [J] !Monthly  [Value,Min,Day,Hour,Minute,Max,Day,Hour,Minute]
743,9,Gas:Facility [J] !Monthly  [Value,Min,Day,Hour,Minute,Max,Day,Hour,Minute]
753,9,Gas:Plant [J] !Monthly  [Value,Min,Day,Hour,Minute,Max,Day,Hour,Minute]
12,11,Electricity:Facility [J] !RunPeriod [Value,Min,Month,Day,Hour,Minute,Max,Month,Day,Hour,Minute]
22,11,Electricity:Building [J] !RunPeriod [Value,Min,Month,Day,Hour,Minute,Max,Month,Day,Hour,Minute]
42,11,InteriorLights:Electricity [J] !RunPeriod [Value,Min,Month,Day,Hour,Minute,Max,Month,Day,Hour,Minute]
692,11,Electricity:HVAC [J] !RunPeriod [Value,Min,Month,Day,Hour,Minute,Max,Month,Day,Hour,Minute]
785,11,Electricity:Plant [J] !RunPeriod [Value,Min,Month,Day,Hour,Minute,Max,Month,Day,Hour,Minute]
744,11,Gas:Facility [J] !RunPeriod [Value,Min,Month,Day,Hour,Minute,Max,Month,Day,Hour,Minute]
754,11,Gas:Plant [J] !RunPeriod [Value,Min,Month,Day,Hour,Minute,Max,Month,Day,Hour,Minute]
End of Data Dictionary
1,Pittsburgh Allegheny Co Ap PA USA TMY3 WMO#=725205,  40.35, -79.92,  -5.00, 380.00
4,1, 1
11,492525329.83384749,885135.603507641,14, 1,15,11279157.141268909,14,11,60
21,446670000.0,427500.0,14, 1,15,10800000.0,14,11,15
41,298350000.0,337500.0,14, 1,15,6750000.0,14,11,15
691,45595099.16746951,457635.60350764109,14, 1,15,565445.7718712282,14,15,30
743,58483920.188778799,0.0,14, 1,15,35846808.893101509,14, 8,15
753,58483920.188778799,0.0,14, 1,15,35846808.893101509,14, 8,15
784,260230.66637799997,0.0,14, 1,15,159369.26384351837,14, 8,15
5,1
12,492525329.83384749,885135.603507641, 1,14, 1,15,11279157.141268909, 1,14,11,60
22,446670000.0,427500.0, 1,14, 1,15,10800000.0, 1,14,11,15
42,298350000.0,337500.0, 1,14, 1,15,6750000.0, 1,14,11,15
692,45595099.16746951,457635.60350764109, 1,14, 1,15,565445.7718712282, 1,14,15,30
744,58483920.188778799,0.0, 1,14, 1,15,35846808.893101509, 1,14, 8,15
754,58483920.188778799,0.0, 1,14, 1,15,35846808.893101509, 1,14, 8,15
785,260230.66637799997,0.0, 1,14, 1,15,159369.26384351837, 1,14, 8,15
1,Pittsburgh Allegheny Co Ap PA USA TMY3 WMO#=725205,  40.35, -79.92,  -5.00, 380.00
4,1, 7
11,635254943.5305963,427500.0, 7, 1,15,16660167.443552303, 7,11,60
21,446670000.0,427500.0, 7, 1,15,10800000.0, 7,11,15
41,298350000.0,337500.0, 7, 1,15,6750000.0, 7,11,15
691,23621199.856034079,0.0, 7, 1,15,732521.9858622827, 7,11,60
743,391752.7533272535,0.0, 7, 1,15,118705.40536587396, 7, 8,30
753,391752.7533272535,0.0, 7, 1,15,118705.40536587396, 7, 8,30
784,164963743.67456193,0.0, 7, 1,15,5127645.457690017, 7,11,60
5,1
12,635254943.5305963,427500.0, 7, 7, 1,15,16660167.443552303, 7, 7,11,60
22,446670000.0,427500.0, 7, 7, 1,15,10800000.0, 7, 7,11,15
42,298350000.0,337500.0, 7, 7, 1,15,6750000.0, 7, 7,11,15
692,23621199.856034079,0.0, 7, 7, 1,15,732521.9858622827, 7, 7,11,60
744,391752.7533272535,0.0, 7, 7, 1,15,118705.40536587396, 7, 7, 8,30
754,391752.7533272535,0.0, 7, 7, 1,15,118705.40536587396, 7, 7, 8,30
785,164963743.67456193,0.0, 7, 7, 1,15,5127645.457690017, 7, 7,11,60
End of Data
 Number of Records Written=          28
