Program Version,EnergyPlus, Version 8.6.0-198c6a3cff, YMD=2017.09.02 01:05
1,5,Environment Title[],Latitude[deg],Longitude[deg],Time Zone[],Elevation[m]
2,6,Day of Simulation[],Month[],Day of Month[],DST Indicator[1=yes 0=no],Hour[],StartMinute[],EndMinute[],DayType
3,3,Cumulative Day of Simulation[],Month[],Day of Month[],DST Indicator[1=yes 0=no],DayType  ! When Daily Report Variables Requested
4,2,Cumulative Days of Simulation[],Month[]  ! When Monthly Report Variables Requested
5,1,Cumulative Days of Simulation[] ! When Run Period Report Variables Requested
6,1,Environment,Site Outdoor Air Drybulb Temperature [C] !Hourly
299,1,PLENUM-1,Zone Air System Sensible Heating Rate [W] !Hourly
300,1,PLENUM-1,Zone Air System Sensible Cooling Rate [W] !Hourly
301,1,PLENUM-1,Zone Air Temperature [C] !Hourly
334,1,SPACE1-1,Zone Air System Sensible Heating Rate [W] !Hourly
335,1,SPACE1-1,Zone Air System Sensible Cooling Rate [W] !Hourly
336,1,SPACE1-1,Zone Air Temperature [C] !Hourly
369,1,SPACE2-1,Zone Air System Sensible Heating Rate [W] !Hourly
370,1,SPACE2-1,Zone Air System Sensible Cooling Rate [W] !Hourly
371,1,SPACE2-1,Zone Air Temperature [C] !Hourly
404,1,SPACE3-1,Zone Air System Sensible Heating Rate [W] !Hourly
405,1,SPACE3-1,Zone Air System Sensible Cooling Rate [W] !Hourly
406,1,SPACE3-1,Zone Air Temperature [C] !Hourly
439,1,SPACE4-1,Zone Air System Sensible Heating Rate [W] !Hourly
440,1,SPACE4-1,Zone Air System Sensible Cooling Rate [W] !Hourly
441,1,SPACE4-1,Zone Air Temperature [C] !Hourly
474,1,SPACE5-1,Zone Air System Sensible Heating Rate [W] !Hourly
475,1,SPACE5-1,Zone Air System Sensible Cooling Rate [W] !Hourly
476,1,SPACE5-1,Zone Air Temperature [C] !Hourly
622,1,SPACE1-1 ZONE COIL,Heating Coil Heating Rate [W] !Hourly
625,1,SPACE2-1 ZONE COIL,Heating Coil Heating Rate [W] !Hourly
628,1,SPACE3-1 ZONE COIL,Heating Coil Heating Rate [W] !Hourly
631,1,SPACE4-1 ZONE COIL,Heating Coil Heating Rate [W] !Hourly
634,1,SPACE5-1 ZONE COIL,Heating Coil Heating Rate [W] !Hourly
637,1,MAIN HEATING COIL 1,Heating Coil Heating Rate [W] !Hourly
680,1,MAIN COOLING COIL 1,Cooling Coil Total Cooling Rate [W] !Hourly
681,1,MAIN COOLING COIL 1,Cooling Coil Sensible Cooling Rate [W] !Hourly
682,1,SPACE1-1 VAV REHEAT,Zone Air Terminal VAV Damper Position [] !Hourly
683,1,SPACE2-1 VAV REHEAT,Zone Air Terminal VAV Damper Position [] !Hourly
684,1,SPACE3-1 VAV REHEAT,Zone Air Terminal VAV Damper Position [] !Hourly
685,1,SPACE4-1 VAV REHEAT,Zone Air Terminal VAV Damper Position [] !Hourly
686,1,SPACE5-1 VAV REHEAT,Zone Air Terminal VAV Damper Position [] !Hourly
930,1,SPACE1-1 IN NODE,System Node Mass Flow Rate [kg/s] !Hourly
931,1,SPACE2-1 IN NODE,System Node Mass Flow Rate [kg/s] !Hourly
932,1,SPACE3-1 IN NODE,System Node Mass Flow Rate [kg/s] !Hourly
933,1,SPACE4-1 IN NODE,System Node Mass Flow Rate [kg/s] !Hourly
934,1,SPACE5-1 IN NODE,System Node Mass Flow Rate [kg/s] !Hourly
935,1,MIXED AIR NODE 1,System Node Temperature [C] !Hourly
936,1,MAIN COOLING COIL 1 OUTLET NODE,System Node Temperature [C] !Hourly
937,1,MAIN HEATING COIL 1 OUTLET NODE,System Node Temperature [C] !Hourly
938,1,VAV SYS 1 OUTLET NODE,System Node Temperature [C] !Hourly
939,1,VAV SYS 1 OUTLET NODE,System Node Mass Flow Rate [kg/s] !Hourly
940,1,VAV SYS 1 OUTLET NODE,System Node Setpoint Temperature [C] !Hourly
End of Data Dictionary
1,Pittsburgh Allegheny Co Ap PA USA TMY3 WMO#=725205,  40.35, -79.92,  -5.00, 380.00
2,1, 1,14, 0, 1, 0.00,60.00,Tuesday
6,12.6
299,0.0
300,526.914141158532
301,19.843644732660914
334,0.0
335,271.3397799271432
336,19.284182077570635
369,0.0
370,175.61567413725963
371,19.181387160112189
404,0.0
405,263.2340408853157
406,19.274553351865909
439,0.0
440,189.14856467075348
441,19.13436016270803
474,0.0
475,548.8677856765813
476,19.609708431994055
622,0.0
625,0.0
628,0.0
631,0.0
634,0.0
637,0.0
680,0.0
681,0.0
682,0.260429443728182
683,0.2
684,0.258471034481163
685,0.2
686,0.4774774785306845
930,0.080883806167105
931,0.05404820534085337
932,0.07869775735177782
933,0.059088550704513759
934,0.14885524190636335
935,15.066193297282354
936,15.066193297282354
937,15.066193297282354
938,16.00076147691595
939,0.5335463011694008
940,16.0
2,1, 1,14, 0, 2, 0.00,60.00,Tuesday
6,10.1875
299,0.0
300,429.2885205222665
301,19.406403646154023
334,0.0
335,242.21739900155093
336,18.936234206646433
369,0.0
370,157.02790049424687
371,18.84988790603147
404,0.0
405,234.29032980075079
406,18.918952267190563
439,0.0
440,168.90973035569705
441,18.804263186907148
474,0.0
475,523.0848409499071
476,19.445453184658743
622,0.0
625,0.0
628,0.0
631,0.0
634,0.0
637,0.0
680,0.0
681,0.0
682,0.260429443728182
683,0.2
684,0.258471034481163
685,0.2
686,0.4774774785306845
930,0.080883806167105
931,0.05404820534085337
932,0.07869775735177782
933,0.059088550704513759
934,0.14885524190636335
935,15.064443914262974
936,15.064443914262974
937,15.064443914262974
938,16.000192412758673
939,0.5335463011694008
940,16.0
2,1, 1,14, 0, 3, 0.00,60.00,Tuesday
6,10.6875
299,0.0
300,284.85520737902018
301,18.992548503305199
334,0.0
335,226.37849096291769
336,18.747426872146656
369,0.0
370,145.89474702049487
371,18.650647975778605
404,0.0
405,218.16370574759243
406,18.721207879162699
439,0.0
440,156.88832981684869
441,18.607365842972976
474,0.0
475,504.40326655301046
476,19.326276072758409
622,0.0
625,0.0
628,0.0
631,0.0
634,0.0
637,0.0
680,0.0
681,0.0
682,0.260429443728182
683,0.2
684,0.258471034481163
685,0.2
686,0.4774774785306845
930,0.080883806167105
931,0.05404820534085337
932,0.07869775735177782
933,0.059088550704513759
934,0.14885524190636335
935,15.063837008155807
936,15.063837008155807
937,15.063837008155807
938,16.000087002276414
939,0.5335463011694008
940,16.0
2,1, 1,14, 0, 4, 0.00,60.00,Tuesday
6,11.1
299,0.0
300,144.67603319794399
301,18.64145960330472
334,0.0
335,217.2836428619899
336,18.63871605020053
369,0.0
370,139.09452077427916
371,18.52835425616035
404,0.0
405,208.69268461837437
406,18.604743035967539
439,0.0
440,149.57271335625047
441,18.486958464943514
474,0.0
475,490.50647705066049
476,19.23669781056191
622,0.0
625,0.0
628,0.0
631,0.0
634,0.0
637,0.0
680,0.0
681,0.0
682,0.260429443728182
683,0.2
684,0.258471034481163
685,0.2
686,0.4774774785306845
930,0.080883806167105
931,0.05404820534085337
932,0.07869775735177782
933,0.059088550704513759
934,0.14885524190636335
935,15.063559012811443
936,15.063559012811443
937,15.063559012811443
938,16.000060297519597
939,0.5335463011694008
940,16.0
2,1, 1,14, 0, 5, 0.00,60.00,Tuesday
6,11.4125
299,0.8795850633728151
300,34.15574574652146
301,18.37787501153117
334,0.0
335,212.30370773430037
336,18.57904232012772
369,0.0
370,135.4614944063553
371,18.46286618831534
404,0.0
405,203.94476832564323
406,18.546292917219249
439,0.0
440,145.68009389140867
441,18.422746656996688
474,0.0
475,481.0594544624065
476,19.175375116881044
622,0.0
625,0.0
628,0.0
631,0.0
634,0.0
637,0.0
680,0.0
681,0.0
682,0.260429443728182
683,0.2
684,0.258471034481163
685,0.2
686,0.4774774785306845
930,0.080883806167105
931,0.05404820534085337
932,0.07869775735177782
933,0.059088550704513759
934,0.14885524190636335
935,15.063425896026347
936,15.063425896026347
937,15.063425896026347
938,15.999989441755629
939,0.5335463011694008
940,16.0
2,1, 1,14, 0, 6, 0.00,60.00,Tuesday
6,11.6
299,52.33815553867498
300,0.0
301,18.192446426278946
334,0.0
335,210.00850429298476
336,18.551200767799707
369,0.0
370,133.83845314892316
371,18.43319431763328
404,0.0
405,202.1794385649158
406,18.524307017502215
439,0.0
440,143.95040156464155
441,18.393788393173744
474,0.0
475,474.38601002646558
476,19.131409108399457
622,0.0
625,0.0
628,0.0
631,0.0
634,0.0
637,0.0
680,0.0
681,0.0
682,0.260429443728182
683,0.2
684,0.258471034481163
685,0.2
686,0.4774774785306845
930,0.080883806167105
931,0.05404820534085337
932,0.07869775735177782
933,0.059088550704513759
934,0.14885524190636335
935,15.063621215547155
936,15.063621215547155
937,15.063621215547155
938,15.999886391232583
939,0.5335463011694008
940,16.0
2,1, 1,14, 0, 7, 0.00,60.00,Tuesday
6,12.287499999999998
299,113.65898397315186
300,0.0
301,18.066999161924217
334,0.0
335,210.74354589240847
336,18.55915766168625
369,0.0
370,133.96082405747013
371,18.434192760790354
404,0.0
405,203.03939328797049
406,18.534103527212439
439,0.0
440,144.1007940977382
441,18.395029666432018
474,0.0
475,471.81799082574778
476,19.113291517162357
622,0.0
625,0.0
628,0.0
631,0.0
634,0.0
637,1509.5760806440069
680,0.0
681,0.0
682,0.260429443728182
683,0.2
684,0.258471034481163
685,0.2
686,0.4774774785306845
930,0.080883806167105
931,0.05404820534085337
932,0.07869775735177782
933,0.059088550704513759
934,0.14885524190636335
935,12.287500000000002
936,12.287500000000002
937,15.064498533838716
938,15.999885534276487
939,0.5335463011694008
940,16.0
2,1, 1,14, 0, 8, 0.00,60.00,Tuesday
6,12.7
299,1459.0418787666608
300,0.0
301,18.7003515567519
334,1653.0438248752685
335,0.0
336,21.02769545696496
369,798.8324378418109
370,2.9677005781552396
371,21.06080587362605
404,1649.0723445986673
405,0.0
406,21.024746665876884
439,805.539070099471
440,3.8424045278479319
441,21.059828106325136
474,1645.6826425819186
475,0.0
476,21.031539907389566
622,2284.8652285510902
625,1171.362982119636
628,2272.5266364962295
631,1204.304000627803
634,2642.1147953922336
637,1211.519022705026
680,0.0
681,0.0
682,0.30188687606356476
683,0.21326187730956842
684,0.30327436321202869
685,0.21137619188307583
686,0.5133111074858614
930,0.0937595965278172
931,0.05763210868101715
932,0.09233921431461041
933,0.06244956415905077
934,0.16002649865949826
935,12.922243179613736
936,12.922243179613736
937,15.111847938085419
938,16.014396352596454
939,0.5815672068956078
940,16.0
2,1, 1,14, 0, 9, 0.00,60.00,Tuesday
6,14.45
299,1730.1402353286912
300,0.0
301,19.491163996270815
334,0.0
335,325.06209239221416
336,21.175405676900028
369,0.0
370,184.68199611344103
371,21.128987813485453
404,0.0
405,336.9450006364136
406,21.205591726665838
439,0.0
440,185.07808046832433
441,21.11698680789247
474,0.0
475,832.9951822586366
476,21.594129280622498
622,100.1030229407371
625,99.16372494797659
628,77.7651853296704
631,125.73020577514524
634,0.0
637,394.64623959019277
680,0.0
681,0.0
682,0.260429443728182
683,0.2
684,0.258471034481163
685,0.2
686,0.4774774785306845
930,0.080883806167105
931,0.05404820534085337
932,0.07869775735177782
933,0.059088550704513759
934,0.14885524190636335
935,14.450000000000001
936,14.450000000000001
937,15.175022965718343
938,16.108942588016864
939,0.5335463011694008
940,16.0
2,1, 1,14, 0,10, 0.00,60.00,Tuesday
6,16.5625
299,1897.2430815767752
300,0.0
301,20.42649668149751
334,0.0
335,401.5692342602713
336,22.350290926679297
369,0.0
370,262.0326461289544
371,22.23733655498661
404,0.0
405,403.0889763338417
406,22.503831174473726
439,0.0
440,278.88341987431627
441,22.11220860549613
474,0.0
475,830.9135018085859
476,22.953509525886305
622,0.0
625,0.0
628,0.0
631,0.0
634,0.0
637,0.0
680,0.0
681,0.0
682,0.260429443728182
683,0.2
684,0.258471034481163
685,0.2
686,0.4774774785306845
930,0.080883806167105
931,0.05404820534085337
932,0.07869775735177782
933,0.059088550704513759
934,0.14885524190636335
935,16.562499999999998
936,16.562499999999998
937,16.562499999999998
938,17.496085194218368
939,0.5335463011694008
940,16.0
2,1, 1,14, 0,11, 0.00,60.00,Tuesday
6,17.8875
299,2031.6318017831068
300,0.0
301,21.535994726006125
334,0.0
335,382.654718614705
336,23.398937146767584
369,0.0
370,255.20802590559598
371,23.393067423864978
404,0.0
405,428.6427372943126
406,23.62449934418399
439,0.0
440,267.26295833933417
441,23.199644690521354
474,0.0
475,905.1341330024683
476,23.7979795217256
622,0.0
625,0.0
628,0.0
631,0.0
634,0.0
637,0.0
680,0.0
681,0.0
682,0.260429443728182
683,0.2
684,0.2839653756745831
685,0.2
686,0.5678537165763185
930,0.080883806167105
931,0.05404820534085337
932,0.08646012608725572
933,0.059088550704513759
934,0.1770303441504902
935,17.887499999999997
936,17.887499999999997
937,17.887499999999997
938,18.775408752345585
939,0.5721887430829544
940,16.0
2,1, 1,14, 0,12, 0.00,60.00,Tuesday
6,18.6125
299,1849.8533838267495
300,0.0
301,22.525982397813704
334,0.0
335,484.8310888995533
336,23.87981218191728
369,0.0
370,329.72947333575777
371,23.896113100790289
404,0.0
405,697.9997807313338
406,23.90544720612727
439,0.0
440,292.36704288273907
441,23.80483277300888
474,0.0
475,1097.3023108907616
476,23.90522005820709
622,0.0
625,0.0
628,0.0
631,0.0
634,0.0
637,0.0
680,0.0
681,0.0
682,0.3370317001511513
683,0.2626889572132019
684,0.4923106372328965
685,0.21699323494544965
686,0.7555258490837162
930,0.10467482599873798
931,0.0709893335011689
932,0.14989587962312735
933,0.06410907882805334
934,0.23553777526417886
935,18.612499999999998
936,18.612499999999998
937,18.612499999999998
938,19.347292097783215
939,0.7525068729378452
940,16.0
2,1, 1,14, 0,13, 0.00,60.00,Tuesday
6,18.4875
299,1169.751996384458
300,0.0
301,23.074099140322788
334,0.0
335,418.9390340704185
336,23.90273124396886
369,0.0
370,295.9171655898613
371,23.903316566386736
404,0.0
405,580.3167524376158
406,23.903419512034039
439,0.0
440,273.9809141027864
441,23.84898822023805
474,0.0
475,776.1760628202496
476,23.902757941146335
622,0.0
625,0.0
628,0.0
631,0.0
634,0.0
637,0.0
680,0.0
681,0.0
682,0.2871925168738357
683,0.23352440449569707
684,0.4064018672441996
685,0.2
686,0.5305697990338563
930,0.08919584335368543
931,0.06310787483141968
932,0.12373887696891742
933,0.059088550704513759
934,0.16540695495509079
935,18.4875
936,18.4875
937,18.4875
938,19.31822346564151
939,0.618454407989846
940,16.0
2,1, 1,14, 0,14, 0.00,60.00,Tuesday
6,18.3
299,980.7130558472136
300,0.0
301,23.54413115351237
334,0.0
335,751.4185643039195
336,23.90405310938354
369,0.0
370,424.12001603148806
371,23.903604306717918
404,0.0
405,873.4918911690103
406,23.90382393439747
439,0.0
440,397.9904670816763
441,23.90155217310201
474,0.0
475,1376.7309311676024
476,23.903779359367478
622,0.0
625,0.0
628,0.0
631,0.0
634,0.0
637,0.0
680,0.0
681,0.0
682,0.47805744627563476
683,0.31030793318673807
684,0.5671341717425645
685,0.2664227249180146
686,0.8726933408710426
930,0.14847440161818904
931,0.08385793445886313
932,0.1726777142486756
933,0.07871266345076414
934,0.2720651427689972
935,18.300000000000006
936,18.300000000000006
937,18.300000000000006
938,18.96196215847256
939,0.8929165109273318
940,16.0
2,1, 1,14, 0,15, 0.00,60.00,Tuesday
6,18.3
299,822.669170572155
300,0.0
301,23.88472522343372
334,0.0
335,843.525633548611
336,23.905187178065846
369,0.0
370,447.02349299980207
371,23.904917687018079
404,0.0
405,939.9228998092369
406,23.905081278239977
439,0.0
440,439.20400353354298
441,23.90500408953945
474,0.0
475,1469.8790124149975
476,24.013965588172398
622,0.0
625,0.0
628,0.0
631,0.0
634,0.0
637,0.0
680,0.0
681,0.0
682,0.5342098433875604
683,0.32548301059531267
684,0.6073552615717537
685,0.29248858365354987
686,0.9074810259928078
930,0.16591413323532418
931,0.08795886295807304
932,0.1849239977603093
933,0.08641363252852097
934,0.28291032294398207
935,18.300000000000006
936,18.300000000000006
937,18.300000000000006
938,18.946143712155533
939,0.9491886538098271
940,16.0
2,1, 1,14, 0,16, 0.00,60.00,Tuesday
6,18.6125
299,711.5371662860307
300,0.0
301,24.091347559854805
334,0.0
335,735.8351004565468
336,23.90546642808144
369,0.0
370,381.8098736471703
371,23.905327203432664
404,0.0
405,805.1439702203397
406,23.905467578496756
439,0.0
440,382.7673004292227
441,23.905383256606578
474,0.0
475,1383.9685976742037
476,24.04829690857127
622,0.0
625,0.0
628,0.0
631,0.0
634,0.0
637,0.0
680,0.0
681,0.0
682,0.4993918166251924
683,0.29781158995207926
684,0.5574008164160699
685,0.2731092525062221
686,0.9074810259928078
930,0.15510040001279419
931,0.08048090983308001
932,0.16971415882653433
933,0.08068814957292878
934,0.28291032294398207
935,18.6125
936,18.6125
937,18.6125
938,19.26978640903989
939,0.9070090750604827
940,16.0
2,1, 1,14, 0,17, 0.00,60.00,Tuesday
6,18.4875
299,705.910543960078
300,0.0
301,24.201883822340166
334,0.0
335,475.2286965471092
336,23.903708795488133
369,0.0
370,266.4778850115079
371,23.880977124890344
404,0.0
405,530.5391413320519
406,23.904235577609478
439,0.0
440,280.9968509858765
441,23.84538305220795
474,0.0
475,1248.3504935889732
476,23.92503958689378
622,0.0
625,0.0
628,0.0
631,0.0
634,0.0
637,0.0
680,0.0
681,0.0
682,0.3213981474815664
683,0.20788640719401386
684,0.3660148649203022
685,0.20193559502940174
686,0.8362314097551284
930,0.09981937944965373
931,0.05617943611797158
932,0.11144207738581599
933,0.059660408229704798
934,0.2606980106618778
935,18.487500000000006
936,18.487500000000006
937,18.487500000000006
938,19.240824803553939
939,0.7122836671633909
940,16.0
2,1, 1,14, 0,18, 0.00,60.00,Tuesday
6,18.3
299,697.3133019051497
300,0.0
301,24.207578265053838
334,0.0
335,393.7914631334831
336,23.87149955774619
369,0.0
370,254.62904923554704
371,23.721076470281575
404,0.0
405,399.00836234107165
406,23.900984244741104
439,0.0
440,273.8331128177404
441,23.646897733715595
474,0.0
475,1172.6126223123983
476,23.90537841650947
622,0.0
625,0.0
628,0.0
631,0.0
634,0.0
637,0.0
680,0.0
681,0.0
682,0.260429443728182
683,0.2
684,0.2675541503689701
685,0.2
686,0.7678284022889629
930,0.080883806167105
931,0.05404820534085337
932,0.08146333165131822
933,0.059088550704513759
934,0.23937313842951234
935,18.3
936,18.3
937,18.3
938,19.11584057345634
939,0.6338511085056262
940,16.0
2,1, 1,14, 0,19, 0.00,60.00,Tuesday
6,17.925
299,109.78303209857654
300,0.0
301,23.76699986661719
334,0.0
335,343.3750681620146
336,23.001684678437785
369,0.0
370,219.61455474007193
371,22.828282449115375
404,0.0
405,337.7751103007101
406,23.047496842155767
439,0.0
440,235.4488421272228
441,22.752330852614315
474,0.0
475,678.1265123416335
476,23.30837881229501
622,0.0
625,0.0
628,0.0
631,0.0
634,0.0
637,0.0
680,0.0
681,0.0
682,0.260429443728182
683,0.2
684,0.258471034481163
685,0.2
686,0.4774774785306845
930,0.080883806167105
931,0.05404820534085337
932,0.07869775735177782
933,0.059088550704513759
934,0.14885524190636335
935,17.924999999999998
936,17.924999999999998
937,17.924999999999998
938,18.858219784545349
939,0.5335463011694008
940,16.0
2,1, 1,14, 0,20, 0.00,60.00,Tuesday
6,17.7
299,0.0
300,480.528338716475
301,22.876410980075059
334,0.0
335,271.631629311018
336,21.915041306436529
369,0.0
370,174.82488703468395
371,21.796854966830645
404,0.0
405,266.8597689910768
406,21.94684590304209
439,0.0
440,186.976852562855
441,21.72857571360407
474,0.0
475,551.2783717373466
476,22.253424235930667
622,0.0
625,0.0
628,0.0
631,0.0
634,0.0
637,0.0
680,0.0
681,0.0
682,0.260429443728182
683,0.2
684,0.258471034481163
685,0.2
686,0.4774774785306845
930,0.080883806167105
931,0.05404820534085337
932,0.07869775735177782
933,0.059088550704513759
934,0.14885524190636335
935,17.7
936,17.7
937,17.7
938,18.633088662979888
939,0.5335463011694008
940,16.0
2,1, 1,14, 0,21, 0.00,60.00,Tuesday
6,17.7
299,0.0
300,487.4978554672816
301,22.12076130496232
334,0.0
335,196.52223518177886
336,21.009854484195988
369,0.0
370,127.59003750707319
371,20.94346514611829
404,0.0
405,192.43909030902908
406,21.02504403284933
439,0.0
440,136.22411809949748
441,20.889539745520119
474,0.0
475,396.29614477296379
476,21.23762596152828
622,0.0
625,0.0
628,0.0
631,0.0
634,0.0
637,0.0
680,0.0
681,0.0
682,0.260429443728182
683,0.2
684,0.258471034481163
685,0.2
686,0.4774774785306845
930,0.080883806167105
931,0.05404820534085337
932,0.07869775735177782
933,0.059088550704513759
934,0.14885524190636335
935,17.7
936,17.7
937,17.7
938,18.633088662979888
939,0.5335463011694008
940,16.0
2,1, 1,14, 0,22, 0.00,60.00,Tuesday
6,17.0125
299,0.0
300,676.1100366303813
301,21.37167840795734
334,0.0
335,196.8789582467939
336,20.32720054516861
369,0.0
370,129.2125180261188
371,20.285183994934884
404,0.0
405,192.04889792615149
406,20.33326099126078
439,0.0
440,138.68009498510146
441,20.242451380806029
474,0.0
475,389.4108883939367
476,20.5053025211067
622,0.0
625,0.0
628,0.0
631,0.0
634,0.0
637,0.0
680,0.0
681,0.0
682,0.260429443728182
683,0.2
684,0.258471034481163
685,0.2
686,0.4774774785306845
930,0.080883806167105
931,0.05404820534085337
932,0.07869775735177782
933,0.059088550704513759
934,0.14885524190636335
935,17.012499999999997
936,17.012499999999997
937,17.012499999999997
938,17.945152771302923
939,0.5335463011694008
940,16.0
2,1, 1,14, 0,23, 0.00,60.00,Tuesday
6,16.6
299,0.0
300,604.3011825630069
301,20.761575080225329
334,0.0
335,198.1070943548042
336,19.929096516973126
369,0.0
370,128.85904976365473
371,19.86537147242915
404,0.0
405,192.6547332772614
406,19.927866460062423
439,0.0
440,138.53338098721248
441,19.826555648801408
474,0.0
475,392.9398399428509
476,20.115490321755325
622,0.0
625,0.0
628,0.0
631,0.0
634,0.0
637,0.0
680,0.0
681,0.0
682,0.260429443728182
683,0.2
684,0.258471034481163
685,0.2
686,0.4774774785306845
930,0.080883806167105
931,0.05404820534085337
932,0.07869775735177782
933,0.059088550704513759
934,0.14885524190636335
935,16.599999999999999
936,16.599999999999999
937,16.599999999999999
938,17.532413675328006
939,0.5335463011694008
940,16.0
2,1, 1,14, 0,24, 0.00,60.00,Tuesday
6,16.2875
299,0.0
300,500.1979408873799
301,20.30592386257615
334,0.0
335,203.84676668718249
336,19.685647520866575
369,0.0
370,131.67597035070478
371,19.603427911836954
404,0.0
405,197.9094242620625
406,19.680327756729825
439,0.0
440,141.6578335163988
441,19.565367553304655
474,0.0
475,407.13918116391019
476,19.895908404332894
622,0.0
625,0.0
628,0.0
631,0.0
634,0.0
637,0.0
680,0.0
681,0.0
682,0.260429443728182
683,0.2
684,0.258471034481163
685,0.2
686,0.4774774785306845
930,0.080883806167105
931,0.05404820534085337
932,0.07869775735177782
933,0.059088550704513759
934,0.14885524190636335
935,16.2875
936,16.2875
937,16.2875
938,17.219837868206345
939,0.5335463011694008
940,16.0
1,Pittsburgh Allegheny Co Ap PA USA TMY3 WMO#=725205,  40.35, -79.92,  -5.00, 380.00
2,1, 7, 7, 0, 1, 0.00,60.00,Tuesday
6,21.625
299,0.0
300,0.0
301,23.36501514409025
334,15.840000000000002
335,0.0
336,21.64849440946836
369,6.840000000000001
370,0.0
371,21.66524611259093
404,15.840000000000002
405,0.0
406,21.623198309598505
439,6.840000000000001
440,0.0
441,21.823839082482296
474,29.640000000000005
475,0.0
476,21.692317446080346
622,0.0
625,0.0
628,0.0
631,0.0
634,0.0
637,0.0
680,0.0
681,0.0
682,0.0
683,0.0
684,0.0
685,0.0
686,0.0
930,0.0
931,0.0
932,0.0
933,0.0
934,0.0
935,23.491053262545635
936,23.491053262545635
937,23.491053262545635
938,23.491053262545635
939,0.0
940,16.0
2,1, 7, 7, 0, 2, 0.00,60.00,Tuesday
6,22.0
299,0.0
300,0.0
301,22.92865530249551
334,15.840000000000002
335,0.0
336,21.51323861243004
369,6.840000000000001
370,0.0
371,21.507093875246548
404,15.840000000000002
405,0.0
406,21.48117914175537
439,6.840000000000001
440,0.0
441,21.596992298797639
474,29.640000000000005
475,0.0
476,21.51225927093969
622,0.0
625,0.0
628,0.0
631,0.0
634,0.0
637,0.0
680,0.0
681,0.0
682,0.0
683,0.0
684,0.0
685,0.0
686,0.0
930,0.0
931,0.0
932,0.0
933,0.0
934,0.0
935,23.027439786859757
936,23.027439786859757
937,23.027439786859757
938,23.027439786859757
939,0.0
940,16.0
2,1, 7, 7, 0, 3, 0.00,60.00,Tuesday
6,22.0
299,0.0
300,0.0
301,22.593255346314458
334,15.840000000000002
335,0.0
336,21.412774551360948
369,6.840000000000001
370,0.0
371,21.399338733364418
404,15.840000000000002
405,0.0
406,21.38294941684064
439,6.840000000000001
440,0.0
441,21.450330399641858
474,29.640000000000005
475,0.0
476,21.38484679504453
622,0.0
625,0.0
628,0.0
631,0.0
634,0.0
637,0.0
680,0.0
681,0.0
682,0.0
683,0.0
684,0.0
685,0.0
686,0.0
930,0.0
931,0.0
932,0.0
933,0.0
934,0.0
935,22.66927596194283
936,22.66927596194283
937,22.66927596194283
938,22.66927596194283
939,0.0
940,16.0
2,1, 7, 7, 0, 4, 0.00,60.00,Tuesday
6,22.0
299,0.0
300,0.0
301,22.33023644118749
334,15.840000000000002
335,0.0
336,21.331016622196885
369,6.840000000000001
370,0.0
371,21.311199704579115
404,15.840000000000002
405,0.0
406,21.2977131763856
439,6.840000000000001
440,0.0
441,21.340192828766204
474,29.640000000000005
475,0.0
476,21.292420115348297
622,0.0
625,0.0
628,0.0
631,0.0
634,0.0
637,0.0
680,0.0
681,0.0
682,0.0
683,0.0
684,0.0
685,0.0
686,0.0
930,0.0
931,0.0
932,0.0
933,0.0
934,0.0
935,22.390472443308874
936,22.390472443308874
937,22.390472443308874
938,22.390472443308874
939,0.0
940,16.0
2,1, 7, 7, 0, 5, 0.00,60.00,Tuesday
6,22.0
299,0.0
300,0.0
301,22.118856727509809
334,15.840000000000002
335,0.0
336,21.274646026347186
369,6.840000000000001
370,0.0
371,21.252665443102445
404,15.840000000000002
405,0.0
406,21.244113509164046
439,6.840000000000001
440,0.0
441,21.26917142788597
474,29.640000000000005
475,0.0
476,21.22303264833583
622,0.0
625,0.0
628,0.0
631,0.0
634,0.0
637,0.0
680,0.0
681,0.0
682,0.0
683,0.0
684,0.0
685,0.0
686,0.0
930,0.0
931,0.0
932,0.0
933,0.0
934,0.0
935,22.16761185115387
936,22.16761185115387
937,22.16761185115387
938,22.16761185115387
939,0.0
940,16.0
2,1, 7, 7, 0, 6, 0.00,60.00,Tuesday
6,22.0
299,0.0
300,0.0
301,21.950931729053989
334,15.840000000000002
335,0.0
336,21.241904406039848
369,6.840000000000001
370,0.0
371,21.22584583428457
404,15.840000000000002
405,0.0
406,21.222041103412523
439,6.840000000000001
440,0.0
441,21.235245236203299
474,29.640000000000005
475,0.0
476,21.17114336021934
622,0.0
625,0.0
628,0.0
631,0.0
634,0.0
637,0.0
680,0.0
681,0.0
682,0.0
683,0.0
684,0.0
685,0.0
686,0.0
930,0.0
931,0.0
932,0.0
933,0.0
934,0.0
935,21.987796619597803
936,21.987796619597803
937,21.987796619597803
938,21.987796619597803
939,0.0
940,16.0
2,1, 7, 7, 0, 7, 0.00,60.00,Tuesday
6,22.0
299,0.0
300,0.0
301,21.88705913191909
334,15.840000000000002
335,0.0
336,21.34557294233094
369,6.840000000000001
370,0.0
371,21.550090336455388
404,15.840000000000002
405,0.0
406,21.55959357710128
439,6.840000000000001
440,0.0
441,21.407433447533465
474,29.640000000000005
475,0.0
476,21.150462241321919
622,0.0
625,0.0
628,0.0
631,0.0
634,0.0
637,0.0
680,0.0
681,0.0
682,0.0
683,0.0
684,0.0
685,0.0
686,0.0
930,0.0
931,0.0
932,0.0
933,0.0
934,0.0
935,21.883991921092354
936,21.883991921092354
937,21.883991921092354
938,21.883991921092354
939,0.0
940,16.0
2,1, 7, 7, 0, 8, 0.00,60.00,Tuesday
6,22.625
299,0.0
300,615.4773224346104
301,21.768989115540497
334,0.0
335,404.9656815063958
336,21.16698957798967
369,0.0
370,340.56558097748629
371,22.371403721222199
404,0.0
405,502.58051188450056
406,22.468202500540703
439,0.0
440,268.6499823097837
441,21.152193868459969
474,0.0
475,108.71607579848589
476,21.112530852104439
622,3.270477166432137
625,0.0
628,0.0
631,31.614184663589155
634,677.1444107996813
637,0.0
680,6973.204840253991
681,4023.059738318294
682,0.260429443728182
683,0.2
684,0.258471034481163
685,0.2
686,0.4774774785306845
930,0.080883806167105
931,0.05404820534085337
932,0.07869775735177782
933,0.059088550704513759
934,0.14885524190636335
935,22.625
936,15.303932380705593
937,15.303932380705593
938,16.232922155891346
939,0.5335463011694008
940,16.0
2,1, 7, 7, 0, 9, 0.00,60.00,Tuesday
6,23.0
299,584.1668594094298
300,0.0
301,22.823589433470454
334,0.0
335,575.3134766213864
336,22.905857675247725
369,0.0
370,655.7031152432471
371,23.819099481956774
404,0.0
405,1115.2404994125584
406,23.820747034812074
439,0.0
440,406.1553425996544
441,22.683172022876947
474,0.0
475,1002.1783349936874
476,22.535197006311443
622,0.0
625,0.0
628,0.0
631,0.0
634,0.0
637,0.0
680,8532.578822426589
681,5042.378618007683
682,0.260429443728182
683,0.30046330354116959
684,0.45235177479146579
685,0.2
686,0.4774774785306845
930,0.080883806167105
931,0.08119751163592143
932,0.13772943758144488
933,0.059088550704513759
934,0.14885524190636335
935,22.989308970790306
936,15.166442655937273
937,15.166442655937273
938,15.993392193668108
939,0.6262140286153526
940,16.0
2,1, 7, 7, 0,10, 0.00,60.00,Tuesday
6,23.625
299,277.3969986407901
300,2.5039998177835516
301,23.810889935413113
334,0.0
335,1384.0786007420215
336,23.9042722368866
369,0.0
370,1243.9409763338556
371,23.905632446549249
404,0.0
405,2071.959057594343
406,23.90628744173752
439,0.0
440,720.3707126530938
441,23.890961415631595
474,0.0
475,1686.8825981502387
476,23.837547097619959
622,0.0
625,0.0
628,0.0
631,0.0
634,0.0
637,0.0
680,13391.865872663517
681,8717.268496820612
682,0.5470671477216218
683,0.5660780634130976
684,0.8362991133138917
685,0.2999549219560589
686,0.6680179311301864
930,0.16990733652562929
931,0.15297751705151858
932,0.2546314902371781
933,0.08861950807534526
934,0.20825688164846499
935,23.63144409202051
936,15.352750886802351
937,15.352750886802351
938,15.98970337288785
939,1.0204486367258774
940,16.0
2,1, 7, 7, 0,11, 0.00,60.00,Tuesday
6,25.25
299,0.0
300,437.1803934793197
301,24.399636353818786
334,0.0
335,1845.0632157689033
336,23.906295531842809
369,0.0
370,1536.8101341566644
371,23.905013420186003
404,0.0
405,2213.637036579423
406,23.90539779248263
439,0.0
440,926.6128951130155
441,23.905656905397036
474,0.0
475,2192.124522413136
476,23.907214368490164
622,0.0
625,0.0
628,0.0
631,0.0
634,0.0
637,0.0
680,17609.683841196318
681,11877.560990186723
682,0.7313798922264925
683,0.7009653783315433
684,0.8956905966889116
685,0.3862809067328826
686,0.8647182082155142
930,0.22715092652545644
931,0.18942960352446112
932,0.2727146636836407
933,0.11412389471835742
934,0.2695788678051451
935,24.719268155826428
936,15.37367613423972
937,15.37367613423972
938,16.001207437619248
939,1.234002639649452
940,16.0
2,1, 7, 7, 0,12, 0.00,60.00,Tuesday
6,22.875
299,0.0
300,917.8239297977161
301,24.83402708900693
334,0.0
335,1721.4095234543522
336,23.904301259744949
369,0.0
370,1274.9439036333815
371,23.903742447269104
404,0.0
405,2016.6300810932564
406,23.904210732125976
439,0.0
440,898.353534461535
441,23.904210530379435
474,0.0
475,2102.84953843316
476,23.905517308409509
622,0.0
625,0.0
628,0.0
631,0.0
634,0.0
637,0.0
680,15618.816052362416
681,9904.533947679234
682,0.6823870608998977
683,0.5812611467243677
684,0.8156562537986459
685,0.37443680124412428
686,0.8295908562803068
930,0.2119348026653065
931,0.1570806090740926
932,0.24834627242761335
933,0.11062463957974689
934,0.25862779533585125
935,23.798756279136016